   36   36    1    1
  0.2599310E+02  0.7364740E-09  0.8470555E-09  0.1500000E-08  0.5000000E-15
   1.0000000000000000E-004
  CAR 
 full                                    
    126      4     82

  0.3742002E-15  0.3742002E-15  0.1262379E-14  0.1111111E+00
    1      -21.262459   1.000000
    2      -19.806499   1.000000
    3      -19.732287   1.000000
    4      -19.304933   1.000000
    5      -19.301432   1.000000
    6      -18.756184   1.000000
    7      -17.892219   1.000000
    8      -17.890337   1.000000
    9      -17.811478   1.000000
   10      -17.809560   1.000000
   11      -15.984761   1.000000
   12      -15.977288   1.000000
   13      -15.900897   1.000000
   14      -14.902248   1.000000
   15      -14.247019   1.000000
   16      -14.246506   1.000000
   17      -14.225991   1.000000
   18      -14.225279   1.000000
   19      -12.420477   1.000000
   20      -12.403591   1.000000
   21      -12.365401   1.000000
   22      -12.362672   1.000000
   23      -12.251002   1.000000
   24      -12.250722   1.000000
   25      -12.235638   1.000000
   26      -12.231787   1.000000
   27      -10.472286   1.000000
   28       -9.403258   1.000000
   29       -9.402884   1.000000
   30       -9.357191   1.000000
   31       -9.018723   1.000000
   32       -8.927104   1.000000
   33       -8.774497   1.000000
   34       -8.427014   1.000000
   35       -8.191600   1.000000
   36       -8.190985   1.000000
   37       -8.143365   1.000000
   38       -8.137802   1.000000
   39       -8.136338   1.000000
   40       -7.984717   1.000000
   41       -7.984228   1.000000
   42       -7.820144   1.000000
   43       -7.713028   1.000000
   44       -7.684938   1.000000
   45       -7.497440   1.000000
   46       -7.119635   1.000000
   47       -7.026279   1.000000
   48       -6.831573   1.000000
   49       -6.632354   1.000000
   50       -6.424810   1.000000
   51       -5.812135   1.000000
   52       -5.732219   1.000000
   53       -5.503569   1.000000
   54       -5.453505   1.000000
   55       -5.408576   1.000000
   56       -5.389252   1.000000
   57       -4.682784   1.000000
   58       -4.502556   1.000000
   59       -4.034821   1.000000
   60       -3.811142   1.000000
   61       -3.794426   1.000000
   62       -1.602036   0.553348
   63       -1.599333   0.541971
   64       -1.579903   0.459864
   65       -1.576328   0.444817
   66        0.157515  -0.000000
   67        1.147449  -0.000000
   68        1.237381  -0.000000
   69        1.255994  -0.000000
   70        2.104922  -0.000000
   71        2.163800  -0.000000
   72        2.164172  -0.000000
   73        2.180357  -0.000000
   74        2.187724  -0.000000
   75        2.625638  -0.000000
   76        3.093172  -0.000000
   77        3.362154  -0.000000
   78        3.979984   0.000000
   79        4.085633   0.000000
   80        4.120939   0.000000
   81        4.222128   0.000000
   82        4.574735   0.000000

  0.3333333E+00  0.3742002E-15  0.1262379E-14  0.2222222E+00
    1      -21.042387   1.000000
    2      -20.385178   1.000000
    3      -19.591268   1.000000
    4      -19.515936   1.000000
    5      -18.952408   1.000000
    6      -18.870725   1.000000
    7      -18.749185   1.000000
    8      -17.819122   1.000000
    9      -16.492143   1.000000
   10      -16.412233   1.000000
   11      -16.023178   1.000000
   12      -15.980870   1.000000
   13      -15.970668   1.000000
   14      -15.716067   1.000000
   15      -15.155754   1.000000
   16      -14.715580   1.000000
   17      -14.404944   1.000000
   18      -14.314453   1.000000
   19      -14.219482   1.000000
   20      -12.936163   1.000000
   21      -12.372795   1.000000
   22      -12.365537   1.000000
   23      -11.351130   1.000000
   24      -11.299987   1.000000
   25      -10.986607   1.000000
   26      -10.422971   1.000000
   27      -10.206528   1.000000
   28      -10.096244   1.000000
   29       -9.770371   1.000000
   30       -9.105534   1.000000
   31       -9.097624   1.000000
   32       -9.026038   1.000000
   33       -8.997104   1.000000
   34       -8.721132   1.000000
   35       -8.433845   1.000000
   36       -8.351916   1.000000
   37       -8.312184   1.000000
   38       -8.197093   1.000000
   39       -8.032840   1.000000
   40       -8.009264   1.000000
   41       -7.783303   1.000000
   42       -7.765636   1.000000
   43       -7.601266   1.000000
   44       -7.430330   1.000000
   45       -7.417026   1.000000
   46       -7.348586   1.000000
   47       -7.284486   1.000000
   48       -6.748242   1.000000
   49       -6.575205   1.000000
   50       -6.325828   1.000000
   51       -6.286977   1.000000
   52       -5.802479   1.000000
   53       -5.793771   1.000000
   54       -5.508988   1.000000
   55       -5.342932   1.000000
   56       -4.993933   1.000000
   57       -4.294890   1.000000
   58       -4.240677   1.000000
   59       -3.884332   1.000000
   60       -3.844332   1.000000
   61       -3.675443   1.000000
   62       -3.362743   1.000000
   63       -2.913291   1.000000
   64       -0.380321  -0.000000
   65        0.073534  -0.000000
   66        0.191936  -0.000000
   67        0.376314  -0.000000
   68        0.393057  -0.000000
   69        1.214275  -0.000000
   70        1.225589  -0.000000
   71        1.624638  -0.000000
   72        2.405299  -0.000000
   73        2.427598  -0.000000
   74        2.574236  -0.000000
   75        2.932827  -0.000000
   76        3.340890  -0.000000
   77        3.518051  -0.000000
   78        3.738747  -0.000000
   79        3.849118  -0.000000
   80        4.134951   0.000000
   81        4.172090   0.000000
   82        4.372378   0.000000

  0.3742002E-15  0.3333333E+00  0.1262379E-14  0.2222222E+00
    1      -21.097501   1.000000
    2      -20.592375   1.000000
    3      -19.145322   1.000000
    4      -19.140551   1.000000
    5      -18.765951   1.000000
    6      -18.646933   1.000000
    7      -18.641090   1.000000
    8      -18.624770   1.000000
    9      -17.207587   1.000000
   10      -16.768132   1.000000
   11      -16.767126   1.000000
   12      -15.982119   1.000000
   13      -15.977424   1.000000
   14      -15.465106   1.000000
   15      -15.465056   1.000000
   16      -13.634716   1.000000
   17      -13.633877   1.000000
   18      -13.353482   1.000000
   19      -13.088231   1.000000
   20      -13.087843   1.000000
   21      -12.376630   1.000000
   22      -12.358986   1.000000
   23      -11.348708   1.000000
   24      -11.347522   1.000000
   25      -11.268554   1.000000
   26      -11.268007   1.000000
   27      -11.214964   1.000000
   28      -10.460021   1.000000
   29      -10.152288   1.000000
   30      -10.152130   1.000000
   31       -9.658955   1.000000
   32       -9.658577   1.000000
   33       -9.169879   1.000000
   34       -8.786863   1.000000
   35       -8.589812   1.000000
   36       -8.425597   1.000000
   37       -7.989728   1.000000
   38       -7.772507   1.000000
   39       -7.709070   1.000000
   40       -7.524773   1.000000
   41       -7.524113   1.000000
   42       -7.468993   1.000000
   43       -7.346803   1.000000
   44       -7.346698   1.000000
   45       -6.987226   1.000000
   46       -6.852621   1.000000
   47       -6.837876   1.000000
   48       -6.541153   1.000000
   49       -6.319466   1.000000
   50       -6.316849   1.000000
   51       -6.137159   1.000000
   52       -5.839708   1.000000
   53       -5.778366   1.000000
   54       -5.715735   1.000000
   55       -5.163693   1.000000
   56       -5.021601   1.000000
   57       -4.871974   1.000000
   58       -4.339468   1.000000
   59       -4.327285   1.000000
   60       -3.802167   1.000000
   61       -3.796109   1.000000
   62       -2.958317   1.000000
   63       -2.944921   1.000000
   64       -0.293178  -0.000000
   65       -0.276241  -0.000000
   66        0.889302  -0.000000
   67        0.955034  -0.000000
   68        1.195713  -0.000000
   69        1.237879  -0.000000
   70        1.319085  -0.000000
   71        1.537058  -0.000000
   72        2.305696  -0.000000
   73        2.352909  -0.000000
   74        2.866303  -0.000000
   75        3.056355  -0.000000
   76        3.359468  -0.000000
   77        3.377416  -0.000000
   78        3.438957  -0.000000
   79        3.587810  -0.000000
   80        3.822143  -0.000000
   81        4.010327   0.000000
   82        4.350994   0.000000

  0.3333333E+00  0.3333333E+00  0.1262379E-14  0.4444444E+00
    1      -20.877866   1.000000
    2      -20.373913   1.000000
    3      -20.221972   1.000000
    4      -19.721676   1.000000
    5      -18.757157   1.000000
    6      -18.417469   1.000000
    7      -17.789505   1.000000
    8      -17.663253   1.000000
    9      -17.187503   1.000000
   10      -17.005365   1.000000
   11      -16.405982   1.000000
   12      -15.993747   1.000000
   13      -15.979743   1.000000
   14      -15.880824   1.000000
   15      -15.745098   1.000000
   16      -14.768241   1.000000
   17      -13.844394   1.000000
   18      -13.368707   1.000000
   19      -13.197366   1.000000
   20      -12.842179   1.000000
   21      -12.373429   1.000000
   22      -12.360495   1.000000
   23      -12.167041   1.000000
   24      -11.291720   1.000000
   25      -11.125289   1.000000
   26      -10.733956   1.000000
   27      -10.412059   1.000000
   28      -10.315578   1.000000
   29       -9.822532   1.000000
   30       -9.071412   1.000000
   31       -8.968893   1.000000
   32       -8.917692   1.000000
   33       -8.908138   1.000000
   34       -8.878639   1.000000
   35       -8.734210   1.000000
   36       -8.433155   1.000000
   37       -8.338393   1.000000
   38       -8.336397   1.000000
   39       -8.172591   1.000000
   40       -8.081797   1.000000
   41       -7.984504   1.000000
   42       -7.798365   1.000000
   43       -7.737845   1.000000
   44       -7.529741   1.000000
   45       -7.272690   1.000000
   46       -6.838410   1.000000
   47       -6.497951   1.000000
   48       -6.378718   1.000000
   49       -6.213001   1.000000
   50       -6.045516   1.000000
   51       -6.040592   1.000000
   52       -5.813337   1.000000
   53       -5.758561   1.000000
   54       -5.336374   1.000000
   55       -5.320914   1.000000
   56       -5.207436   1.000000
   57       -4.811517   1.000000
   58       -4.624743   1.000000
   59       -4.009411   1.000000
   60       -3.875447   1.000000
   61       -3.736935   1.000000
   62       -3.649487   1.000000
   63       -3.419726   1.000000
   64       -0.008887  -0.000000
   65        0.058543  -0.000000
   66        0.675536  -0.000000
   67        1.081176  -0.000000
   68        1.150459  -0.000000
   69        1.268716  -0.000000
   70        1.293053  -0.000000
   71        1.853999  -0.000000
   72        2.022414  -0.000000
   73        2.438000  -0.000000
   74        2.576917  -0.000000
   75        2.656403  -0.000000
   76        2.756437  -0.000000
   77        3.175985  -0.000000
   78        3.256537  -0.000000
   79        3.337417  -0.000000
   80        3.521680  -0.000000
   81        3.827339  -0.000000
   82        4.018327   0.000000
