       N       E                     dE             d eps       ncg     rms          rms(c)
DAV:   1     0.931373193731E+03    0.93137E+03   -0.45996E+04   688   0.100E+03
DAV:   2    -0.167063093117E+03   -0.10984E+04   -0.10613E+04   928   0.277E+02
DAV:   3    -0.316057840871E+03   -0.14899E+03   -0.14821E+03   800   0.108E+02
DAV:   4    -0.320607609899E+03   -0.45498E+01   -0.45347E+01   776   0.229E+01
DAV:   5    -0.320757787862E+03   -0.15018E+00   -0.15001E+00   912   0.357E+00    0.265E+01
DAV:   6    -0.303145637967E+03    0.17612E+02   -0.19598E+01   736   0.123E+01    0.153E+01
DAV:   7    -0.297353766623E+03    0.57919E+01   -0.19948E+01   752   0.122E+01    0.476E+00
DAV:   8    -0.297218385762E+03    0.13538E+00   -0.12855E+00   744   0.324E+00    0.699E-01
DAV:   9    -0.297182194817E+03    0.36191E-01   -0.17883E-01   744   0.117E+00    0.427E-01
DAV:  10    -0.297168515287E+03    0.13680E-01   -0.44340E-02   742   0.562E-01    0.207E-01
DAV:  11    -0.297164071991E+03    0.44433E-02   -0.42129E-03   744   0.207E-01    0.152E-01
DAV:  12    -0.297158912029E+03    0.51600E-02   -0.29195E-02   674   0.393E-01    0.104E-01
DAV:  13    -0.297161191320E+03   -0.22793E-02   -0.12166E-03   750   0.122E-01    0.968E-02
DAV:  14    -0.297161269132E+03   -0.77812E-04   -0.19610E-03   704   0.158E-01    0.623E-02
DAV:  15    -0.297163355359E+03   -0.20862E-02   -0.13188E-02   744   0.431E-01    0.113E-01
DAV:  16    -0.297163628842E+03   -0.27348E-03   -0.42383E-03   742   0.222E-01    0.360E-02
DAV:  17    -0.297165258663E+03   -0.16298E-02   -0.60816E-04   690   0.769E-02    0.350E-02
DAV:  18    -0.297166507262E+03   -0.12486E-02   -0.22386E-04   718   0.413E-02    0.243E-02
DAV:  19    -0.297167236295E+03   -0.72903E-03   -0.62672E-05   718   0.204E-02    0.188E-02
DAV:  20    -0.297167541607E+03   -0.30531E-03   -0.54732E-05   712   0.231E-02    0.100E-02
DAV:  21    -0.297167648289E+03   -0.10668E-03   -0.27708E-05   710   0.170E-02    0.404E-03
DAV:  22    -0.297167673598E+03   -0.25309E-04   -0.78859E-06   696   0.883E-03    0.233E-03
DAV:  23    -0.297167677310E+03   -0.37122E-05   -0.21665E-06   736   0.540E-03    0.128E-03
DAV:  24    -0.297167680554E+03   -0.32437E-05   -0.10966E-06   744   0.379E-03    0.459E-04
DAV:  25    -0.297167686528E+03   -0.59741E-05   -0.55623E-07   740   0.226E-03    0.318E-04
DAV:  26    -0.297167687676E+03   -0.11484E-05   -0.98528E-08   712   0.830E-04    0.201E-04
DAV:  27    -0.297167688167E+03   -0.49024E-06   -0.91279E-09   480   0.273E-04    0.127E-04
DAV:  28    -0.297167688349E+03   -0.18229E-06   -0.80005E-09   492   0.216E-04    0.557E-05
DAV:  29    -0.297167688366E+03   -0.16666E-07   -0.18044E-09   496   0.144E-04    0.261E-05
DAV:  30    -0.297167688372E+03   -0.68849E-08   -0.59167E-10   472   0.814E-05
   1 F= -.29924326E+03 E0= -.29923498E+03  d E =-.248316E-01
