PROCAR lm decomposed
# of k-points:    4         # of bands:  82         # of ions:  36

 k-point    1 :    0.00000000 0.00000000 0.00000000     weight = 0.11111111

band   1 # energy  -21.26245924 # occ.  2.00000000

ion      s     py     pz     px    dxy    dyz    dz2    dxz    dx2    tot
  1  0.030  0.000  0.000  0.000  0.000  0.000  0.000  0.000  0.000  0.030
  2  0.027  0.000  0.000  0.000  0.000  0.000  0.000  0.000  0.000  0.027
  3  0.026  0.000  0.000  0.000  0.000  0.000  0.000  0.000  0.000  0.026
  4  0.025  0.000  0.000  0.000  0.000  0.000  0.000  0.000  0.000  0.025
  5  0.031  0.000  0.000  0.000  0.000  0.000  0.000  0.000  0.000  0.031
  6  0.027  0.000  0.000  0.000  0.000  0.000  0.000  0.000  0.000  0.027
  7  0.026  0.000  0.000  0.000  0.000  0.000  0.000  0.000  0.000  0.026
  8  0.025  0.000  0.000  0.000  0.000  0.000  0.000  0.000  0.000  0.025
  9  0.031  0.000  0.000  0.000  0.000  0.000  0.000  0.000  0.000  0.031
 10  0.027  0.000  0.000  0.000  0.000  0.000  0.000  0.000  0.000  0.027
 11  0.026  0.000  0.000  0.000  0.000  0.000  0.000  0.000  0.000  0.026
 12  0.025  0.000  0.000  0.000  0.000  0.000  0.000  0.000  0.000  0.025
 13  0.025  0.000  0.000  0.000  0.000  0.000  0.000  0.000  0.000  0.025
 14  0.026  0.000  0.000  0.000  0.000  0.000  0.000  0.000  0.000  0.026
 15  0.027  0.000  0.000  0.000  0.000  0.000  0.000  0.000  0.000  0.027
 16  0.030  0.000  0.000  0.000  0.000  0.000  0.000  0.000  0.000  0.030
 17  0.025  0.000  0.000  0.000  0.000  0.000  0.000  0.000  0.000  0.025
 18  0.026  0.000  0.000  0.000  0.000  0.000  0.000  0.000  0.000  0.026
 19  0.028  0.000  0.000  0.000  0.000  0.000  0.000  0.000  0.000  0.028
 20  0.031  0.000  0.000  0.000  0.000  0.000  0.000  0.000  0.000  0.031
 21  0.025  0.000  0.000  0.000  0.000  0.000  0.000  0.000  0.000  0.025
 22  0.026  0.000  0.000  0.000  0.000  0.000  0.000  0.000  0.000  0.026
 23  0.027  0.000  0.000  0.000  0.000  0.000  0.000  0.000  0.000  0.027
 24  0.030  0.000  0.000  0.000  0.000  0.000  0.000  0.000  0.000  0.030
 25  0.000  0.000  0.000  0.000  0.000  0.000  0.000  0.000  0.000  0.000
 26  0.000  0.000  0.000  0.000  0.000  0.000  0.000  0.000  0.000  0.000
 27  0.000  0.000  0.000  0.000  0.000  0.000  0.000  0.000  0.000  0.000
 28  0.000  0.000  0.000  0.000  0.000  0.000  0.000  0.000  0.000  0.000
 29  0.000  0.000  0.000  0.000  0.000  0.000  0.000  0.000  0.000  0.000
 30  0.000  0.000  0.000  0.000  0.000  0.000  0.000  0.000  0.000  0.000
 31  0.000  0.000  0.000  0.000  0.000  0.000  0.000  0.000  0.000  0.000
 32  0.000  0.000  0.000  0.000  0.000  0.000  0.000  0.000  0.000  0.000
 33  0.000  0.000  0.000  0.000  0.000  0.000  0.000  0.000  0.000  0.000
 34  0.000  0.000  0.000  0.000  0.000  0.000  0.000  0.000  0.000  0.000
 35  0.000  0.000  0.000  0.000  0.000  0.000  0.000  0.000  0.000  0.000
 36  0.000  0.000  0.000  0.000  0.000  0.000  0.000  0.000  0.000  0.000
tot  0.652  0.000  0.000  0.000  0.000  0.000  0.000  0.000  0.000  0.652

band   2 # energy  -19.80649934 # occ.  2.00000000

ion      s     py     pz     px    dxy    dyz    dz2    dxz    dx2    tot
  1  0.044  0.000  0.000  0.000  0.000  0.000  0.000  0.000  0.000  0.044
  2  0.002  0.005  0.000  0.000  0.000  0.000  0.000  0.000  0.000  0.007
  3  0.004  0.005  0.000  0.000  0.000  0.000  0.000  0.000  0.000  0.009
  4  0.049  0.000  0.000  0.000  0.000  0.000  0.000  0.000  0.000  0.049
  5  0.046  0.000  0.000  0.000  0.000  0.000  0.000  0.000  0.000  0.046
  6  0.003  0.005  0.000  0.000  0.000  0.000  0.000  0.000  0.000  0.007
  7  0.004  0.005  0.000  0.000  0.000  0.000  0.000  0.000  0.000  0.009
  8  0.049  0.000  0.000  0.000  0.000  0.000  0.000  0.000  0.000  0.049
  9  0.046  0.000  0.000  0.000  0.000  0.000  0.000  0.000  0.000  0.046
 10  0.003  0.005  0.000  0.000  0.000  0.000  0.000  0.000  0.000  0.007
 11  0.004  0.005  0.000  0.000  0.000  0.000  0.000  0.000  0.000  0.009
 12  0.049  0.000  0.000  0.000  0.000  0.000  0.000  0.000  0.000  0.049
 13  0.049  0.000  0.000  0.000  0.000  0.000  0.000  0.000  0.000  0.050
 14  0.004  0.005  0.000  0.000  0.000  0.000  0.000  0.000  0.000  0.009
 15  0.002  0.005  0.000  0.000  0.000  0.000  0.000  0.000  0.000  0.007
 16  0.044  0.000  0.000  0.000  0.000  0.000  0.000  0.000  0.000  0.045
 17  0.049  0.000  0.000  0.000  0.000  0.000  0.000  0.000  0.000  0.049
 18  0.004  0.005  0.000  0.000  0.000  0.000  0.000  0.000  0.000  0.009
 19  0.003  0.005  0.000  0.000  0.000  0.000  0.000  0.000  0.000  0.008
 20  0.047  0.000  0.000  0.000  0.000  0.000  0.000  0.000  0.000  0.047
 21  0.049  0.000  0.000  0.000  0.000  0.000  0.000  0.000  0.000  0.049
 22  0.004  0.005  0.000  0.000  0.000  0.000  0.000  0.000  0.000  0.009
 23  0.002  0.005  0.000  0.000  0.000  0.000  0.000  0.000  0.000  0.007
 24  0.044  0.000  0.000  0.000  0.000  0.000  0.000  0.000  0.000  0.045
 25  0.000  0.000  0.000  0.000  0.000  0.000  0.000  0.000  0.000  0.000
 26  0.000  0.000  0.000  0.000  0.000  0.000  0.000  0.000  0.000  0.000
 27  0.000  0.000  0.000  0.000  0.000  0.000  0.000  0.000  0.000  0.000
 28  0.000  0.000  0.000  0.000  0.000  0.000  0.000  0.000  0.000  0.000
 29  0.000  0.000  0.000  0.000  0.000  0.000  0.000  0.000  0.000  0.000
 30  0.000  0.000  0.000  0.000  0.000  0.000  0.000  0.000  0.000  0.000
 31  0.000  0.000  0.000  0.000  0.000  0.000  0.000  0.000  0.000  0.000
 32  0.000  0.000  0.000  0.000  0.000  0.000  0.000  0.000  0.000  0.000
 33  0.000  0.000  0.000  0.000  0.000  0.000  0.000  0.000  0.000  0.000
 34  0.000  0.000  0.000  0.000  0.000  0.000  0.000  0.000  0.000  0.000
 35  0.000  0.000  0.000  0.000  0.000  0.000  0.000  0.000  0.000  0.000
 36  0.000  0.000  0.000  0.000  0.000  0.000  0.000  0.000  0.000  0.000
tot  0.606  0.062  0.000  0.000  0.000  0.000  0.000  0.000  0.000  0.668

band   3 # energy  -19.73228670 # occ.  2.00000000

ion      s     py     pz     px    dxy    dyz    dz2    dxz    dx2    tot
  1  0.003  0.005  0.000  0.000  0.000  0.000  0.000  0.000  0.000  0.008
  2  0.046  0.000  0.000  0.000  0.000  0.000  0.000  0.000  0.000  0.046
  3  0.047  0.000  0.000  0.000  0.000  0.000  0.000  0.000  0.000  0.047
  4  0.003  0.005  0.000  0.000  0.000  0.000  0.000  0.000  0.000  0.008
  5  0.003  0.005  0.000  0.000  0.000  0.000  0.000  0.000  0.000  0.008
  6  0.047  0.000  0.000  0.000  0.000  0.000  0.000  0.000  0.000  0.048
  7  0.048  0.000  0.000  0.000  0.000  0.000  0.000  0.000  0.000  0.048
  8  0.004  0.005  0.000  0.000  0.000  0.000  0.000  0.000  0.000  0.008
  9  0.003  0.005  0.000  0.000  0.000  0.000  0.000  0.000  0.000  0.008
 10  0.047  0.000  0.000  0.000  0.000  0.000  0.000  0.000  0.000  0.048
 11  0.047  0.000  0.000  0.000  0.000  0.000  0.000  0.000  0.000  0.047
 12  0.003  0.005  0.000  0.000  0.000  0.000  0.000  0.000  0.000  0.008
 13  0.003  0.005  0.000  0.000  0.000  0.000  0.000  0.000  0.000  0.008
 14  0.046  0.000  0.000  0.000  0.000  0.000  0.000  0.000  0.000  0.047
 15  0.047  0.000  0.000  0.000  0.000  0.000  0.000  0.000  0.000  0.047
 16  0.003  0.005  0.000  0.000  0.000  0.000  0.000  0.000  0.000  0.008
 17  0.003  0.005  0.000  0.000  0.000  0.000  0.000  0.000  0.000  0.008
 18  0.047  0.000  0.000  0.000  0.000  0.000  0.000  0.000  0.000  0.047
 19  0.048  0.000  0.000  0.000  0.000  0.000  0.000  0.000  0.000  0.048
 20  0.003  0.005  0.000  0.000  0.000  0.000  0.000  0.000  0.000  0.008
 21  0.003  0.005  0.000  0.000  0.000  0.000  0.000  0.000  0.000  0.008
 22  0.047  0.000  0.000  0.000  0.000  0.000  0.000  0.000  0.000  0.047
 23  0.047  0.000  0.000  0.000  0.000  0.000  0.000  0.000  0.000  0.047
 24  0.003  0.005  0.000  0.000  0.000  0.000  0.000  0.000  0.000  0.008
 25  0.000  0.000  0.000  0.000  0.000  0.000  0.000  0.000  0.000  0.000
 26  0.000  0.000  0.000  0.000  0.000  0.000  0.000  0.000  0.000  0.000
 27  0.000  0.000  0.000  0.000  0.000  0.000  0.000  0.000  0.000  0.000
 28  0.000  0.000  0.000  0.000  0.000  0.000  0.000  0.000  0.000  0.000
 29  0.000  0.000  0.000  0.000  0.000  0.000  0.000  0.000  0.000  0.000
 30  0.000  0.000  0.000  0.000  0.000  0.000  0.000  0.000  0.000  0.000
 31  0.000  0.000  0.000  0.000  0.000  0.000  0.000  0.000  0.000  0.000
 32  0.000  0.000  0.000  0.000  0.000  0.000  0.000  0.000  0.000  0.000
 33  0.000  0.000  0.000  0.000  0.000  0.000  0.000  0.000  0.000  0.000
 34  0.000  0.000  0.000  0.000  0.000  0.000  0.000  0.000  0.000  0.000
 35  0.000  0.000  0.000  0.000  0.000  0.000  0.000  0.000  0.000  0.000
 36  0.000  0.000  0.000  0.000  0.000  0.000  0.000  0.000  0.000  0.000
tot  0.601  0.063  0.000  0.000  0.000  0.000  0.000  0.000  0.000  0.665

band   4 # energy  -19.30493305 # occ.  2.00000000

ion      s     py     pz     px    dxy    dyz    dz2    dxz    dx2    tot
  1  0.056  0.000  0.000  0.000  0.000  0.000  0.000  0.000  0.000  0.056
  2  0.049  0.000  0.000  0.000  0.000  0.000  0.000  0.000  0.000  0.049
  3  0.012  0.000  0.000  0.005  0.000  0.000  0.000  0.000  0.000  0.017
  4  0.011  0.000  0.000  0.005  0.000  0.000  0.000  0.000  0.000  0.016
  5  0.013  0.000  0.000  0.006  0.000  0.000  0.000  0.000  0.000  0.019
  6  0.012  0.000  0.000  0.005  0.000  0.000  0.000  0.000  0.000  0.017
  7  0.046  0.000  0.000  0.000  0.000  0.000  0.000  0.000  0.000  0.046
  8  0.044  0.000  0.000  0.000  0.000  0.000  0.000  0.000  0.000  0.044
  9  0.014  0.000  0.000  0.006  0.000  0.000  0.000  0.000  0.000  0.020
 10  0.012  0.000  0.000  0.005  0.000  0.000  0.000  0.000  0.000  0.017
 11  0.011  0.000  0.000  0.005  0.000  0.000  0.000  0.000  0.000  0.016
 12  0.011  0.000  0.000  0.005  0.000  0.000  0.000  0.000  0.000  0.016
 13  0.044  0.000  0.000  0.000  0.000  0.000  0.000  0.000  0.000  0.044
 14  0.047  0.000  0.000  0.000  0.000  0.000  0.000  0.000  0.000  0.047
 15  0.013  0.000  0.000  0.005  0.000  0.000  0.000  0.000  0.000  0.018
 16  0.014  0.000  0.000  0.006  0.000  0.000  0.000  0.000  0.000  0.020
 17  0.011  0.000  0.000  0.005  0.000  0.000  0.000  0.000  0.000  0.016
 18  0.011  0.000  0.000  0.005  0.000  0.000  0.000  0.000  0.000  0.016
 19  0.049  0.000  0.000  0.000  0.000  0.000  0.000  0.000  0.000  0.049
 20  0.055  0.000  0.000  0.000  0.000  0.000  0.000  0.000  0.000  0.055
 21  0.011  0.000  0.000  0.005  0.000  0.000  0.000  0.000  0.000  0.016
 22  0.012  0.000  0.000  0.005  0.000  0.000  0.000  0.000  0.000  0.017
 23  0.012  0.000  0.000  0.005  0.000  0.000  0.000  0.000  0.000  0.017
 24  0.014  0.000  0.000  0.006  0.000  0.000  0.000  0.000  0.000  0.020
 25  0.001  0.000  0.000  0.000  0.000  0.000  0.000  0.000  0.000  0.001
 26  0.001  0.000  0.000  0.000  0.000  0.000  0.000  0.000  0.000  0.001
 27  0.001  0.000  0.000  0.000  0.000  0.000  0.000  0.000  0.000  0.001
 28  0.001  0.000  0.000  0.000  0.000  0.000  0.000  0.000  0.000  0.001
 29  0.001  0.000  0.000  0.000  0.000  0.000  0.000  0.000  0.000  0.001
 30  0.001  0.000  0.000  0.000  0.000  0.000  0.000  0.000  0.000  0.001
 31  0.000  0.000  0.000  0.000  0.000  0.000  0.000  0.000  0.000  0.000
 32  0.000  0.000  0.000  0.000  0.000  0.000  0.000  0.000  0.000  0.000
 33  0.000  0.000  0.000  0.000  0.000  0.000  0.000  0.000  0.000  0.000
 34  0.000  0.000  0.000  0.000  0.000  0.000  0.000  0.000  0.000  0.000
 35  0.000  0.000  0.000  0.000  0.000  0.000  0.000  0.000  0.000  0.000
 36  0.000  0.000  0.000  0.000  0.000  0.000  0.000  0.000  0.000  0.000
tot  0.589  0.000  0.000  0.083  0.000  0.000  0.000  0.000  0.000  0.672

band   5 # energy  -19.30143193 # occ.  2.00000000

ion      s     py     pz     px    dxy    dyz    dz2    dxz    dx2    tot
  1  0.000  0.000  0.000  0.008  0.000  0.000  0.000  0.000  0.000  0.008
  2  0.000  0.000  0.000  0.007  0.000  0.000  0.000  0.000  0.000  0.007
  3  0.035  0.000  0.000  0.002  0.000  0.000  0.000  0.000  0.000  0.036
  4  0.033  0.000  0.000  0.002  0.000  0.000  0.000  0.000  0.000  0.035
  5  0.042  0.000  0.000  0.002  0.000  0.000  0.000  0.000  0.000  0.044
  6  0.037  0.000  0.000  0.002  0.000  0.000  0.000  0.000  0.000  0.039
  7  0.000  0.000  0.000  0.007  0.000  0.000  0.000  0.000  0.000  0.007
  8  0.000  0.000  0.000  0.006  0.000  0.000  0.000  0.000  0.000  0.006
  9  0.042  0.000  0.000  0.002  0.000  0.000  0.000  0.000  0.000  0.044
 10  0.037  0.000  0.000  0.002  0.000  0.000  0.000  0.000  0.000  0.038
 11  0.035  0.000  0.000  0.002  0.000  0.000  0.000  0.000  0.000  0.037
 12  0.033  0.000  0.000  0.002  0.000  0.000  0.000  0.000  0.000  0.035
 13  0.000  0.000  0.000  0.006  0.000  0.000  0.000  0.000  0.000  0.006
 14  0.000  0.000  0.000  0.007  0.000  0.000  0.000  0.000  0.000  0.007
 15  0.037  0.000  0.000  0.002  0.000  0.000  0.000  0.000  0.000  0.039
 16  0.042  0.000  0.000  0.002  0.000  0.000  0.000  0.000  0.000  0.044
 17  0.034  0.000  0.000  0.002  0.000  0.000  0.000  0.000  0.000  0.035
 18  0.035  0.000  0.000  0.002  0.000  0.000  0.000  0.000  0.000  0.037
 19  0.000  0.000  0.000  0.007  0.000  0.000  0.000  0.000  0.000  0.007
 20  0.000  0.000  0.000  0.008  0.000  0.000  0.000  0.000  0.000  0.008
 21  0.033  0.000  0.000  0.002  0.000  0.000  0.000  0.000  0.000  0.035
 22  0.035  0.000  0.000  0.002  0.000  0.000  0.000  0.000  0.000  0.037
 23  0.037  0.000  0.000  0.002  0.000  0.000  0.000  0.000  0.000  0.039
 24  0.042  0.000  0.000  0.002  0.000  0.000  0.000  0.000  0.000  0.044
 25  0.000  0.000  0.000  0.000  0.000  0.000  0.000  0.000  0.000  0.000
 26  0.000  0.000  0.000  0.000  0.000  0.000  0.000  0.000  0.000  0.000
 27  0.000  0.000  0.000  0.000  0.000  0.000  0.000  0.000  0.000  0.000
 28  0.000  0.000  0.000  0.000  0.000  0.000  0.000  0.000  0.000  0.000
 29  0.000  0.000  0.000  0.000  0.000  0.000  0.000  0.000  0.000  0.000
 30  0.000  0.000  0.000  0.000  0.000  0.000  0.000  0.000  0.000  0.000
 31  0.000  0.000  0.000  0.000  0.000  0.000  0.000  0.000  0.000  0.000
 32  0.000  0.000  0.000  0.000  0.000  0.000  0.000  0.000  0.000  0.000
 33  0.000  0.000  0.000  0.000  0.000  0.000  0.000  0.000  0.000  0.000
 34  0.000  0.000  0.000  0.000  0.000  0.000  0.000  0.000  0.000  0.000
 35  0.000  0.000  0.000  0.000  0.000  0.000  0.000  0.000  0.000  0.000
 36  0.000  0.000  0.000  0.000  0.000  0.000  0.000  0.000  0.000  0.000
tot  0.589  0.000  0.000  0.083  0.000  0.000  0.000  0.000  0.000  0.672

band   6 # energy  -18.75618381 # occ.  2.00000000

ion      s     py     pz     px    dxy    dyz    dz2    dxz    dx2    tot
  1  0.001  0.000  0.000  0.000  0.000  0.000  0.000  0.000  0.000  0.001
  2  0.001  0.000  0.000  0.000  0.000  0.000  0.000  0.000  0.000  0.001
  3  0.000  0.000  0.000  0.000  0.000  0.000  0.000  0.000  0.000  0.000
  4  0.000  0.000  0.000  0.000  0.000  0.000  0.000  0.000  0.000  0.000
  5  0.000  0.000  0.000  0.000  0.000  0.000  0.000  0.000  0.000  0.000
  6  0.000  0.000  0.000  0.000  0.000  0.000  0.000  0.000  0.000  0.000
  7  0.000  0.000  0.000  0.000  0.000  0.000  0.000  0.000  0.000  0.000
  8  0.001  0.000  0.000  0.000  0.000  0.000  0.000  0.000  0.000  0.001
  9  0.000  0.000  0.000  0.000  0.000  0.000  0.000  0.000  0.000  0.000
 10  0.000  0.000  0.000  0.000  0.000  0.000  0.000  0.000  0.000  0.000
 11  0.000  0.000  0.000  0.000  0.000  0.000  0.000  0.000  0.000  0.000
 12  0.000  0.000  0.000  0.000  0.000  0.000  0.000  0.000  0.000  0.000
 13  0.000  0.000  0.000  0.000  0.000  0.000  0.000  0.000  0.000  0.000
 14  0.001  0.000  0.000  0.000  0.000  0.000  0.000  0.000  0.000  0.001
 15  0.000  0.000  0.000  0.000  0.000  0.000  0.000  0.000  0.000  0.000
 16  0.000  0.000  0.000  0.000  0.000  0.000  0.000  0.000  0.000  0.000
 17  0.000  0.000  0.000  0.000  0.000  0.000  0.000  0.000  0.000  0.001
 18  0.000  0.000  0.000  0.000  0.000  0.000  0.000  0.000  0.000  0.000
 19  0.000  0.000  0.000  0.000  0.000  0.000  0.000  0.000  0.000  0.000
 20  0.000  0.000  0.000  0.000  0.000  0.000  0.000  0.000  0.000  0.000
 21  0.000  0.000  0.000  0.000  0.000  0.000  0.000  0.000  0.000  0.001
 22  0.000  0.000  0.000  0.000  0.000  0.000  0.000  0.000  0.000  0.000
 23  0.000  0.000  0.000  0.000  0.000  0.000  0.000  0.000  0.000  0.000
 24  0.000  0.000  0.000  0.000  0.000  0.000  0.000  0.000  0.000  0.000
 25  0.098  0.002  0.000  0.007  0.000  0.000  0.000  0.000  0.000  0.107
 26  0.097  0.009  0.000  0.000  0.000  0.000  0.000  0.000  0.000  0.106
 27  0.098  0.002  0.000  0.007  0.000  0.000  0.000  0.000  0.000  0.107
 28  0.097  0.009  0.000  0.000  0.000  0.000  0.000  0.000  0.000  0.107
 29  0.098  0.002  0.000  0.007  0.000  0.000  0.000  0.000  0.000  0.107
 30  0.098  0.002  0.000  0.007  0.000  0.000  0.000  0.000  0.000  0.107
 31  0.005  0.000  0.000  0.000  0.000  0.000  0.000  0.000  0.000  0.005
 32  0.005  0.001  0.000  0.000  0.000  0.000  0.000  0.000  0.000  0.005
 33  0.005  0.000  0.000  0.000  0.000  0.000  0.000  0.000  0.000  0.005
 34  0.005  0.001  0.000  0.000  0.000  0.000  0.000  0.000  0.000  0.005
 35  0.005  0.000  0.000  0.000  0.000  0.000  0.000  0.000  0.000  0.005
 36  0.005  0.000  0.000  0.000  0.000  0.000  0.000  0.000  0.000  0.005
tot  0.621  0.029  0.000  0.029  0.000  0.000  0.000  0.000  0.000  0.679

band   7 # energy  -17.89221916 # occ.  2.00000000

ion      s     py     pz     px    dxy    dyz    dz2    dxz    dx2    tot
  1  0.000  0.000  0.000  0.013  0.000  0.000  0.000  0.000  0.000  0.013
  2  0.000  0.000  0.000  0.000  0.000  0.000  0.000  0.000  0.000  0.000
  3  0.006  0.007  0.000  0.000  0.000  0.000  0.000  0.000  0.000  0.013
  4  0.066  0.000  0.000  0.003  0.000  0.000  0.000  0.000  0.000  0.069
  5  0.061  0.000  0.000  0.003  0.000  0.000  0.000  0.000  0.000  0.065
  6  0.005  0.007  0.000  0.000  0.000  0.000  0.000  0.000  0.000  0.012
  7  0.000  0.000  0.000  0.000  0.000  0.000  0.000  0.000  0.000  0.000
  8  0.000  0.000  0.000  0.013  0.000  0.000  0.000  0.000  0.000  0.013
  9  0.062  0.000  0.000  0.003  0.000  0.000  0.000  0.000  0.000  0.066
 10  0.005  0.007  0.000  0.000  0.000  0.000  0.000  0.000  0.000  0.012
 11  0.006  0.007  0.000  0.000  0.000  0.000  0.000  0.000  0.000  0.013
 12  0.065  0.000  0.000  0.003  0.000  0.000  0.000  0.000  0.000  0.069
 13  0.000  0.000  0.000  0.013  0.000  0.000  0.000  0.000  0.000  0.013
 14  0.000  0.000  0.000  0.001  0.000  0.000  0.000  0.000  0.000  0.001
 15  0.003  0.007  0.000  0.000  0.000  0.000  0.000  0.000  0.000  0.010
 16  0.060  0.001  0.000  0.003  0.000  0.000  0.000  0.000  0.000  0.064
 17  0.067  0.000  0.000  0.003  0.000  0.000  0.000  0.000  0.000  0.070
 18  0.008  0.007  0.000  0.000  0.000  0.000  0.000  0.000  0.000  0.015
 19  0.000  0.000  0.000  0.000  0.000  0.000  0.000  0.000  0.000  0.000
 20  0.000  0.000  0.000  0.013  0.000  0.000  0.000  0.000  0.000  0.013
 21  0.068  0.000  0.000  0.003  0.000  0.000  0.000  0.000  0.000  0.071
 22  0.008  0.007  0.000  0.000  0.000  0.000  0.000  0.000  0.000  0.015
 23  0.003  0.007  0.000  0.000  0.000  0.000  0.000  0.000  0.000  0.010
 24  0.059  0.001  0.000  0.003  0.000  0.000  0.000  0.000  0.000  0.063
 25  0.000  0.000  0.000  0.000  0.000  0.000  0.000  0.000  0.000  0.000
 26  0.000  0.000  0.000  0.000  0.000  0.000  0.000  0.000  0.000  0.000
 27  0.000  0.000  0.000  0.000  0.000  0.000  0.000  0.000  0.000  0.000
 28  0.000  0.000  0.000  0.000  0.000  0.000  0.000  0.000  0.000  0.000
 29  0.000  0.000  0.000  0.000  0.000  0.000  0.000  0.000  0.000  0.000
 30  0.000  0.000  0.000  0.000  0.000  0.000  0.000  0.000  0.000  0.000
 31  0.000  0.000  0.000  0.000  0.000  0.000  0.000  0.000  0.000  0.000
 32  0.000  0.000  0.000  0.000  0.000  0.000  0.000  0.000  0.000  0.000
 33  0.000  0.000  0.000  0.000  0.000  0.000  0.000  0.000  0.000  0.000
 34  0.000  0.000  0.000  0.000  0.000  0.000  0.000  0.000  0.000  0.000
 35  0.000  0.000  0.000  0.000  0.000  0.000  0.000  0.000  0.000  0.000
 36  0.000  0.000  0.000  0.000  0.000  0.000  0.000  0.000  0.000  0.000
tot  0.552  0.059  0.000  0.080  0.000  0.000  0.000  0.000  0.000  0.690

band   8 # energy  -17.89033722 # occ.  2.00000000

ion      s     py     pz     px    dxy    dyz    dz2    dxz    dx2    tot
  1  0.080  0.001  0.000  0.000  0.000  0.000  0.000  0.000  0.000  0.081
  2  0.004  0.009  0.000  0.000  0.000  0.000  0.000  0.000  0.000  0.014
  3  0.003  0.002  0.000  0.000  0.000  0.000  0.000  0.000  0.000  0.005
  4  0.022  0.000  0.000  0.010  0.000  0.000  0.000  0.000  0.000  0.032
  5  0.020  0.000  0.000  0.009  0.000  0.000  0.000  0.000  0.000  0.030
  6  0.001  0.002  0.000  0.000  0.000  0.000  0.000  0.000  0.000  0.003
  7  0.011  0.009  0.000  0.000  0.000  0.000  0.000  0.000  0.000  0.020
  8  0.089  0.000  0.000  0.000  0.000  0.000  0.000  0.000  0.000  0.089
  9  0.019  0.000  0.000  0.010  0.000  0.000  0.000  0.000  0.000  0.029
 10  0.001  0.002  0.000  0.000  0.000  0.000  0.000  0.000  0.000  0.003
 11  0.003  0.002  0.000  0.000  0.000  0.000  0.000  0.000  0.000  0.005
 12  0.023  0.000  0.000  0.010  0.000  0.000  0.000  0.000  0.000  0.033
 13  0.087  0.001  0.000  0.000  0.000  0.000  0.000  0.000  0.000  0.088
 14  0.007  0.009  0.000  0.000  0.000  0.000  0.000  0.000  0.000  0.017
 15  0.002  0.002  0.000  0.000  0.000  0.000  0.000  0.000  0.000  0.004
 16  0.021  0.000  0.000  0.010  0.000  0.000  0.000  0.000  0.000  0.030
 17  0.022  0.000  0.000  0.010  0.000  0.000  0.000  0.000  0.000  0.032
 18  0.002  0.002  0.000  0.000  0.000  0.000  0.000  0.000  0.000  0.004
 19  0.007  0.009  0.000  0.000  0.000  0.000  0.000  0.000  0.000  0.016
 20  0.082  0.000  0.000  0.000  0.000  0.000  0.000  0.000  0.000  0.083
 21  0.021  0.000  0.000  0.010  0.000  0.000  0.000  0.000  0.000  0.031
 22  0.002  0.002  0.000  0.000  0.000  0.000  0.000  0.000  0.000  0.004
 23  0.002  0.002  0.000  0.000  0.000  0.000  0.000  0.000  0.000  0.004
 24  0.022  0.000  0.000  0.009  0.000  0.000  0.000  0.000  0.000  0.031
 25  0.000  0.000  0.000  0.000  0.000  0.000  0.000  0.000  0.000  0.000
 26  0.000  0.000  0.000  0.000  0.000  0.000  0.000  0.000  0.000  0.000
 27  0.000  0.000  0.000  0.000  0.000  0.000  0.000  0.000  0.000  0.000
 28  0.000  0.000  0.000  0.000  0.000  0.000  0.000  0.000  0.000  0.000
 29  0.000  0.000  0.000  0.000  0.000  0.000  0.000  0.000  0.000  0.000
 30  0.000  0.000  0.000  0.000  0.000  0.000  0.000  0.000  0.000  0.000
 31  0.000  0.000  0.000  0.000  0.000  0.000  0.000  0.000  0.000  0.000
 32  0.000  0.000  0.000  0.000  0.000  0.000  0.000  0.000  0.000  0.000
 33  0.000  0.000  0.000  0.000  0.000  0.000  0.000  0.000  0.000  0.000
 34  0.000  0.000  0.000  0.000  0.000  0.000  0.000  0.000  0.000  0.000
 35  0.000  0.000  0.000  0.000  0.000  0.000  0.000  0.000  0.000  0.000
 36  0.000  0.000  0.000  0.000  0.000  0.000  0.000  0.000  0.000  0.000
tot  0.552  0.059  0.000  0.080  0.000  0.000  0.000  0.000  0.000  0.690

band   9 # energy  -17.81147797 # occ.  2.00000000

ion      s     py     pz     px    dxy    dyz    dz2    dxz    dx2    tot
  1  0.009  0.009  0.000  0.000  0.000  0.000  0.000  0.000  0.000  0.018
  2  0.086  0.000  0.000  0.000  0.000  0.000  0.000  0.000  0.000  0.086
  3  0.022  0.000  0.000  0.009  0.000  0.000  0.000  0.000  0.000  0.031
  4  0.002  0.002  0.000  0.000  0.000  0.000  0.000  0.000  0.000  0.004
  5  0.002  0.002  0.000  0.000  0.000  0.000  0.000  0.000  0.000  0.005
  6  0.020  0.000  0.000  0.010  0.000  0.000  0.000  0.000  0.000  0.030
  7  0.082  0.001  0.000  0.000  0.000  0.000  0.000  0.000  0.000  0.083
  8  0.006  0.009  0.000  0.000  0.000  0.000  0.000  0.000  0.000  0.015
  9  0.002  0.002  0.000  0.000  0.000  0.000  0.000  0.000  0.000  0.005
 10  0.021  0.000  0.000  0.010  0.000  0.000  0.000  0.000  0.000  0.031
 11  0.021  0.000  0.000  0.009  0.000  0.000  0.000  0.000  0.000  0.030
 12  0.001  0.002  0.000  0.000  0.000  0.000  0.000  0.000  0.000  0.004
 13  0.009  0.009  0.000  0.000  0.000  0.000  0.000  0.000  0.000  0.018
 14  0.086  0.000  0.000  0.000  0.000  0.000  0.000  0.000  0.000  0.087
 15  0.021  0.000  0.000  0.009  0.000  0.000  0.000  0.000  0.000  0.031
 16  0.001  0.003  0.000  0.000  0.000  0.000  0.000  0.000  0.000  0.004
 17  0.002  0.002  0.000  0.000  0.000  0.000  0.000  0.000  0.000  0.005
 18  0.021  0.000  0.000  0.010  0.000  0.000  0.000  0.000  0.000  0.030
 19  0.082  0.001  0.000  0.000  0.000  0.000  0.000  0.000  0.000  0.083
 20  0.005  0.010  0.000  0.000  0.000  0.000  0.000  0.000  0.000  0.015
 21  0.002  0.002  0.000  0.000  0.000  0.000  0.000  0.000  0.000  0.005
 22  0.021  0.000  0.000  0.010  0.000  0.000  0.000  0.000  0.000  0.031
 23  0.020  0.000  0.000  0.010  0.000  0.000  0.000  0.000  0.000  0.030
 24  0.001  0.002  0.000  0.000  0.000  0.000  0.000  0.000  0.000  0.004
 25  0.000  0.000  0.000  0.000  0.000  0.000  0.000  0.000  0.000  0.000
 26  0.000  0.000  0.000  0.000  0.000  0.000  0.000  0.000  0.000  0.000
 27  0.000  0.000  0.000  0.000  0.000  0.000  0.000  0.000  0.000  0.000
 28  0.000  0.000  0.000  0.000  0.000  0.000  0.000  0.000  0.000  0.000
 29  0.000  0.000  0.000  0.000  0.000  0.000  0.000  0.000  0.000  0.000
 30  0.000  0.000  0.000  0.000  0.000  0.000  0.000  0.000  0.000  0.000
 31  0.000  0.000  0.000  0.000  0.000  0.000  0.000  0.000  0.000  0.000
 32  0.000  0.000  0.000  0.000  0.000  0.000  0.000  0.000  0.000  0.000
 33  0.000  0.000  0.000  0.000  0.000  0.000  0.000  0.000  0.000  0.000
 34  0.000  0.000  0.000  0.000  0.000  0.000  0.000  0.000  0.000  0.000
 35  0.000  0.000  0.000  0.000  0.000  0.000  0.000  0.000  0.000  0.000
 36  0.000  0.000  0.000  0.000  0.000  0.000  0.000  0.000  0.000  0.000
tot  0.548  0.060  0.000  0.078  0.000  0.000  0.000  0.000  0.000  0.686

band  10 # energy  -17.80956022 # occ.  2.00000000

ion      s     py     pz     px    dxy    dyz    dz2    dxz    dx2    tot
  1  0.000  0.000  0.000  0.000  0.000  0.000  0.000  0.000  0.000  0.000
  2  0.000  0.000  0.000  0.013  0.000  0.000  0.000  0.000  0.000  0.013
  3  0.064  0.000  0.000  0.003  0.000  0.000  0.000  0.000  0.000  0.067
  4  0.006  0.007  0.000  0.000  0.000  0.000  0.000  0.000  0.000  0.013
  5  0.004  0.007  0.000  0.000  0.000  0.000  0.000  0.000  0.000  0.012
  6  0.063  0.000  0.000  0.003  0.000  0.000  0.000  0.000  0.000  0.067
  7  0.000  0.000  0.000  0.013  0.000  0.000  0.000  0.000  0.000  0.013
  8  0.000  0.000  0.000  0.000  0.000  0.000  0.000  0.000  0.000  0.000
  9  0.004  0.007  0.000  0.000  0.000  0.000  0.000  0.000  0.000  0.012
 10  0.062  0.000  0.000  0.003  0.000  0.000  0.000  0.000  0.000  0.066
 11  0.065  0.000  0.000  0.003  0.000  0.000  0.000  0.000  0.000  0.068
 12  0.006  0.007  0.000  0.000  0.000  0.000  0.000  0.000  0.000  0.013
 13  0.000  0.000  0.000  0.000  0.000  0.000  0.000  0.000  0.000  0.000
 14  0.000  0.000  0.000  0.013  0.000  0.000  0.000  0.000  0.000  0.013
 15  0.063  0.000  0.000  0.003  0.000  0.000  0.000  0.000  0.000  0.067
 16  0.006  0.007  0.000  0.000  0.000  0.000  0.000  0.000  0.000  0.013
 17  0.005  0.007  0.000  0.000  0.000  0.000  0.000  0.000  0.000  0.012
 18  0.063  0.000  0.000  0.003  0.000  0.000  0.000  0.000  0.000  0.066
 19  0.000  0.000  0.000  0.013  0.000  0.000  0.000  0.000  0.000  0.013
 20  0.000  0.000  0.000  0.000  0.000  0.000  0.000  0.000  0.000  0.000
 21  0.004  0.007  0.000  0.000  0.000  0.000  0.000  0.000  0.000  0.012
 22  0.062  0.000  0.000  0.003  0.000  0.000  0.000  0.000  0.000  0.066
 23  0.064  0.000  0.000  0.003  0.000  0.000  0.000  0.000  0.000  0.068
 24  0.006  0.007  0.000  0.000  0.000  0.000  0.000  0.000  0.000  0.013
 25  0.000  0.000  0.000  0.000  0.000  0.000  0.000  0.000  0.000  0.000
 26  0.000  0.000  0.000  0.000  0.000  0.000  0.000  0.000  0.000  0.000
 27  0.000  0.000  0.000  0.000  0.000  0.000  0.000  0.000  0.000  0.000
 28  0.000  0.000  0.000  0.000  0.000  0.000  0.000  0.000  0.000  0.000
 29  0.000  0.000  0.000  0.000  0.000  0.000  0.000  0.000  0.000  0.000
 30  0.000  0.000  0.000  0.000  0.000  0.000  0.000  0.000  0.000  0.000
 31  0.000  0.000  0.000  0.000  0.000  0.000  0.000  0.000  0.000  0.000
 32  0.000  0.000  0.000  0.000  0.000  0.000  0.000  0.000  0.000  0.000
 33  0.000  0.000  0.000  0.000  0.000  0.000  0.000  0.000  0.000  0.000
 34  0.000  0.000  0.000  0.000  0.000  0.000  0.000  0.000  0.000  0.000
 35  0.000  0.000  0.000  0.000  0.000  0.000  0.000  0.000  0.000  0.000
 36  0.000  0.000  0.000  0.000  0.000  0.000  0.000  0.000  0.000  0.000
tot  0.548  0.060  0.000  0.078  0.000  0.000  0.000  0.000  0.000  0.686

band  11 # energy  -15.98476052 # occ.  2.00000000

ion      s     py     pz     px    dxy    dyz    dz2    dxz    dx2    tot
  1  0.001  0.000  0.000  0.000  0.000  0.000  0.000  0.000  0.000  0.001
  2  0.001  0.000  0.000  0.000  0.000  0.000  0.000  0.000  0.000  0.001
  3  0.000  0.000  0.000  0.000  0.000  0.000  0.000  0.000  0.000  0.001
  4  0.002  0.000  0.000  0.000  0.000  0.000  0.000  0.000  0.000  0.002
  5  0.001  0.000  0.000  0.000  0.000  0.000  0.000  0.000  0.000  0.001
  6  0.001  0.000  0.000  0.000  0.000  0.000  0.000  0.000  0.000  0.001
  7  0.001  0.000  0.000  0.000  0.000  0.000  0.000  0.000  0.000  0.001
  8  0.001  0.000  0.000  0.000  0.000  0.000  0.000  0.000  0.000  0.001
  9  0.001  0.000  0.000  0.000  0.000  0.000  0.000  0.000  0.000  0.001
 10  0.001  0.000  0.000  0.000  0.000  0.000  0.000  0.000  0.000  0.001
 11  0.000  0.000  0.000  0.000  0.000  0.000  0.000  0.000  0.000  0.001
 12  0.002  0.000  0.000  0.000  0.000  0.000  0.000  0.000  0.000  0.002
 13  0.001  0.001  0.000  0.000  0.000  0.000  0.000  0.000  0.000  0.001
 14  0.002  0.000  0.000  0.000  0.000  0.000  0.000  0.000  0.000  0.002