  12  12   1   0
  0.7797930E+02  0.7364740E-09  0.8470556E-09  0.1500000E-08  0.5000000E-15
   1.0000000000000000E-004
  CAR 
 full                                    
      5.00000000    -15.00000000 2001     -5.76700525      1.00000000
    -15.000  0.6000E+03  0.6000E+01
    -14.990 -0.1122E-01  0.6000E+01
    -14.980 -0.1448E-01  0.5999E+01
    -14.970 -0.1857E-01  0.5999E+01
    -14.960 -0.2367E-01  0.5999E+01
    -14.950 -0.3000E-01  0.5999E+01
    -14.940 -0.3778E-01  0.5998E+01
    -14.930 -0.4728E-01  0.5998E+01
    -14.920 -0.5879E-01  0.5997E+01
    -14.910 -0.7265E-01  0.5997E+01
    -14.900 -0.8919E-01  0.5996E+01
    -14.890 -0.1088E+00  0.5995E+01
    -14.880 -0.1318E+00  0.5993E+01
    -14.870 -0.1585E+00  0.5992E+01
    -14.860 -0.1894E+00  0.5990E+01
    -14.850 -0.2246E+00  0.5987E+01
    -14.840 -0.2644E+00  0.5985E+01
    -14.830 -0.3089E+00  0.5982E+01
    -14.820 -0.3581E+00  0.5978E+01
    -14.810 -0.4117E+00  0.5974E+01
    -14.800 -0.4693E+00  0.5969E+01
    -14.790 -0.5301E+00  0.5964E+01
    -14.780 -0.5931E+00  0.5958E+01
    -14.770 -0.6569E+00  0.5952E+01
    -14.760 -0.7197E+00  0.5944E+01
    -14.750 -0.7790E+00  0.5937E+01
    -14.740 -0.8322E+00  0.5928E+01
    -14.730 -0.8759E+00  0.5919E+01
    -14.720 -0.9062E+00  0.5910E+01
    -14.710 -0.9190E+00  0.5901E+01
    -14.700 -0.9093E+00  0.5892E+01
    -14.690 -0.8719E+00  0.5883E+01
    -14.680 -0.8014E+00  0.5875E+01
    -14.670 -0.6918E+00  0.5868E+01
    -14.660 -0.5373E+00  0.5863E+01
    -14.650 -0.3322E+00  0.5860E+01
    -14.640 -0.7089E-01  0.5859E+01
    -14.630  0.2517E+00  0.5862E+01
    -14.620  0.6399E+00  0.5868E+01
    -14.610  0.1097E+01  0.5879E+01
    -14.600  0.1626E+01  0.5895E+01
    -14.590  0.2227E+01  0.5918E+01
    -14.580  0.2899E+01  0.5946E+01
    -14.570  0.3641E+01  0.5983E+01
    -14.560  0.4449E+01  0.6027E+01
    -14.550  0.5315E+01  0.6081E+01
    -14.540  0.6232E+01  0.6143E+01
    -14.530  0.7191E+01  0.6215E+01
    -14.520  0.8178E+01  0.6297E+01
    -14.510  0.9182E+01  0.6388E+01
    -14.500  0.1019E+02  0.6490E+01
    -14.490  0.1118E+02  0.6602E+01
    -14.480  0.1214E+02  0.6723E+01
    -14.470  0.1305E+02  0.6854E+01
    -14.460  0.1389E+02  0.6993E+01
    -14.450  0.1466E+02  0.7139E+01
    -14.440  0.1533E+02  0.7293E+01
    -14.430  0.1590E+02  0.7452E+01
    -14.420  0.1634E+02  0.7615E+01
    -14.410  0.1666E+02  0.7782E+01
    -14.400  0.1684E+02  0.7950E+01
    -14.390  0.1688E+02  0.8119E+01
    -14.380  0.1678E+02  0.8287E+01
    -14.370  0.1654E+02  0.8452E+01
    -14.360  0.1618E+02  0.8614E+01
    -14.350  0.1568E+02  0.8771E+01
    -14.340  0.1507E+02  0.8921E+01
    -14.330  0.1436E+02  0.9065E+01
    -14.320  0.1356E+02  0.9201E+01
    -14.310  0.1268E+02  0.9327E+01
    -14.300  0.1175E+02  0.9445E+01
    -14.290  0.1077E+02  0.9553E+01
    -14.280  0.9776E+01  0.9650E+01
    -14.270  0.8770E+01  0.9738E+01
    -14.260  0.7772E+01  0.9816E+01
    -14.250  0.6794E+01  0.9884E+01
    -14.240  0.5851E+01  0.9942E+01
    -14.230  0.4954E+01  0.9992E+01
    -14.220  0.4111E+01  0.1003E+02
    -14.210  0.3330E+01  0.1007E+02
    -14.200  0.2615E+01  0.1009E+02
    -14.190  0.1972E+01  0.1011E+02
    -14.180  0.1401E+01  0.1013E+02
    -14.170  0.9014E+00  0.1014E+02
    -14.160  0.4727E+00  0.1014E+02
    -14.150  0.1119E+00  0.1014E+02
    -14.140 -0.1851E+00  0.1014E+02
    -14.130 -0.4227E+00  0.1013E+02
    -14.120 -0.6064E+00  0.1013E+02
    -14.110 -0.7418E+00  0.1012E+02
    -14.100 -0.8347E+00  0.1011E+02
    -14.090 -0.8910E+00  0.1010E+02
    -14.080 -0.9164E+00  0.1010E+02
    -14.070 -0.9163E+00  0.1009E+02
    -14.060 -0.8957E+00  0.1008E+02
    -14.050 -0.8594E+00  0.1007E+02
    -14.040 -0.8114E+00  0.1006E+02
    -14.030 -0.7553E+00  0.1005E+02
    -14.020 -0.6943E+00  0.1005E+02
    -14.010 -0.6309E+00  0.1004E+02
    -14.000 -0.5672E+00  0.1003E+02
    -13.990 -0.5049E+00  0.1003E+02
    -13.980 -0.4453E+00  0.1002E+02
    -13.970 -0.3893E+00  0.1002E+02
    -13.960 -0.3374E+00  0.1002E+02
    -13.950 -0.2902E+00  0.1001E+02
    -13.940 -0.2476E+00  0.1001E+02
    -13.930 -0.2096E+00  0.1001E+02
    -13.920 -0.1762E+00  0.1001E+02
    -13.910 -0.1471E+00  0.1001E+02
    -13.900 -0.1219E+00  0.1001E+02
    -13.890 -0.1004E+00  0.1000E+02
    -13.880 -0.8207E-01  0.1000E+02
    -13.870 -0.6667E-01  0.1000E+02
    -13.860 -0.5381E-01  0.1000E+02
    -13.850 -0.4316E-01  0.1000E+02
    -13.840 -0.3440E-01  0.1000E+02
    -13.830 -0.2724E-01  0.1000E+02
    -13.820 -0.2145E-01  0.1000E+02
    -13.810 -0.1678E-01  0.1000E+02
    -13.800 -0.1305E-01  0.1000E+02
    -13.790 -0.1009E-01  0.1000E+02
    -13.780 -0.7756E-02  0.1000E+02
    -13.770 -0.5926E-02  0.1000E+02
    -13.760 -0.4502E-02  0.1000E+02
    -13.750 -0.3400E-02  0.1000E+02
    -13.740 -0.2553E-02  0.1000E+02
    -13.730 -0.1906E-02  0.1000E+02
    -13.720 -0.1415E-02  0.1000E+02
    -13.710 -0.1045E-02  0.1000E+02
    -13.700 -0.7670E-03  0.1000E+02
    -13.690 -0.5599E-03  0.1000E+02
    -13.680 -0.4065E-03  0.1000E+02
    -13.670 -0.2934E-03  0.1000E+02
    -13.660 -0.2107E-03  0.1000E+02
    -13.650 -0.1504E-03  0.1000E+02
    -13.640 -0.1068E-03  0.1000E+02
    -13.630 -0.7542E-04  0.1000E+02
    -13.620 -0.5297E-04  0.1000E+02
    -13.610 -0.3700E-04  0.1000E+02
    -13.600 -0.2571E-04  0.1000E+02
    -13.590 -0.1776E-04  0.1000E+02
    -13.580 -0.1221E-04  0.1000E+02
    -13.570 -0.8346E-05  0.1000E+02
    -13.560 -0.5675E-05  0.1000E+02
    -13.550 -0.3838E-05  0.1000E+02
    -13.540 -0.2582E-05  0.1000E+02
    -13.530 -0.1727E-05  0.1000E+02
    -13.520 -0.1150E-05  0.1000E+02
    -13.510 -0.7612E-06  0.1000E+02
    -13.500 -0.5014E-06  0.1000E+02
    -13.490 -0.3286E-06  0.1000E+02
    -13.480 -0.2145E-06  0.1000E+02
    -13.470 -0.1396E-06  0.1000E+02
    -13.460 -0.9088E-07  0.1000E+02
    -13.450 -0.5973E-07  0.1000E+02
    -13.440 -0.4041E-07  0.1000E+02
    -13.430 -0.2932E-07  0.1000E+02
    -13.420 -0.2430E-07  0.1000E+02
    -13.410 -0.2437E-07  0.1000E+02
    -13.400 -0.2948E-07  0.1000E+02
    -13.390 -0.4049E-07  0.1000E+02
    -13.380 -0.5934E-07  0.1000E+02
    -13.370 -0.8931E-07  0.1000E+02
    -13.360 -0.1355E-06  0.1000E+02
    -13.350 -0.2058E-06  0.1000E+02
    -13.340 -0.3114E-06  0.1000E+02
    -13.330 -0.4693E-06  0.1000E+02
    -13.320 -0.7037E-06  0.1000E+02
    -13.310 -0.1050E-05  0.1000E+02
    -13.300 -0.1558E-05  0.1000E+02
    -13.290 -0.2301E-05  0.1000E+02
    -13.280 -0.3379E-05  0.1000E+02
    -13.270 -0.4937E-05  0.1000E+02
    -13.260 -0.7174E-05  0.1000E+02
    -13.250 -0.1037E-04  0.1000E+02
    -13.240 -0.1491E-04  0.1000E+02
    -13.230 -0.2133E-04  0.1000E+02
    -13.220 -0.3034E-04  0.1000E+02
    -13.210 -0.4294E-04  0.1000E+02
    -13.200 -0.6043E-04  0.1000E+02
    -13.190 -0.8460E-04  0.1000E+02
    -13.180 -0.1178E-03  0.1000E+02
    -13.170 -0.1631E-03  0.1000E+02
    -13.160 -0.2247E-03  0.1000E+02
    -13.150 -0.3078E-03  0.1000E+02
    -13.140 -0.4193E-03  0.1000E+02
    -13.130 -0.5681E-03  0.1000E+02
    -13.120 -0.7654E-03  0.1000E+02
    -13.110 -0.1026E-02  0.1000E+02
    -13.100 -0.1367E-02  0.1000E+02
    -13.090 -0.1811E-02  0.1000E+02
    -13.080 -0.2386E-02  0.1000E+02
    -13.070 -0.3125E-02  0.1000E+02
    -13.060 -0.4071E-02  0.1000E+02
    -13.050 -0.5272E-02  0.1000E+02
    -13.040 -0.6788E-02  0.1000E+02
    -13.030 -0.8688E-02  0.1000E+02
    -13.020 -0.1106E-01  0.1000E+02
    -13.010 -0.1398E-01  0.9999E+01
    -13.000 -0.1758E-01  0.9999E+01
    -12.990 -0.2197E-01  0.9999E+01
    -12.980 -0.2729E-01  0.9999E+01
    -12.970 -0.3368E-01  0.9998E+01
    -12.960 -0.4130E-01  0.9998E+01
    -12.950 -0.5032E-01  0.9997E+01
    -12.940 -0.6091E-01  0.9997E+01
    -12.930 -0.7323E-01  0.9996E+01
    -12.920 -0.8744E-01  0.9995E+01
    -12.910 -0.1037E+00  0.9994E+01
    -12.900 -0.1221E+00  0.9993E+01
    -12.890 -0.1426E+00  0.9992E+01
    -12.880 -0.1654E+00  0.9990E+01
    -12.870 -0.1902E+00  0.9988E+01
    -12.860 -0.2170E+00  0.9986E+01
    -12.850 -0.2453E+00  0.9983E+01
    -12.840 -0.2748E+00  0.9981E+01
    -12.830 -0.3049E+00  0.9978E+01
    -12.820 -0.3347E+00  0.9974E+01
    -12.810 -0.3631E+00  0.9971E+01
    -12.800 -0.3891E+00  0.9967E+01
    -12.790 -0.4110E+00  0.9963E+01
    -12.780 -0.4273E+00  0.9958E+01
    -12.770 -0.4358E+00  0.9954E+01
    -12.760 -0.4345E+00  0.9950E+01
    -12.750 -0.4208E+00  0.9945E+01
    -12.740 -0.3924E+00  0.9941E+01
    -12.730 -0.3464E+00  0.9938E+01
    -12.720 -0.2802E+00  0.9935E+01
    -12.710 -0.1909E+00  0.9933E+01
    -12.700 -0.7588E-01  0.9933E+01
    -12.690  0.6738E-01  0.9933E+01
    -12.680  0.2411E+00  0.9936E+01
    -12.670  0.4472E+00  0.9940E+01
    -12.660  0.6869E+00  0.9947E+01
    -12.650  0.9611E+00  0.9957E+01
    -12.640  0.1270E+01  0.9969E+01
    -12.630  0.1613E+01  0.9985E+01
    -12.620  0.1988E+01  0.1001E+02
    -12.610  0.2393E+01  0.1003E+02
    -12.600  0.2825E+01  0.1006E+02
    -12.590  0.3279E+01  0.1009E+02
    -12.580  0.3751E+01  0.1013E+02
    -12.570  0.4234E+01  0.1017E+02
    -12.560  0.4723E+01  0.1022E+02
    -12.550  0.5208E+01  0.1027E+02
    -12.540  0.5685E+01  0.1033E+02
    -12.530  0.6143E+01  0.1039E+02
    -12.520  0.6575E+01  0.1045E+02
    -12.510  0.6974E+01  0.1052E+02
    -12.500  0.7333E+01  0.1060E+02
    -12.490  0.7643E+01  0.1067E+02
    -12.480  0.7900E+01  0.1075E+02
    -12.470  0.8098E+01  0.1083E+02
    -12.460  0.8233E+01  0.1092E+02
    -12.450  0.8302E+01  0.1100E+02
    -12.440  0.8304E+01  0.1108E+02
    -12.430  0.8239E+01  0.1116E+02
    -12.420  0.8109E+01  0.1124E+02
    -12.410  0.7915E+01  0.1132E+02
    -12.400  0.7662E+01  0.1140E+02
    -12.390  0.7354E+01  0.1147E+02
    -12.380  0.6999E+01  0.1154E+02
    -12.370  0.6602E+01  0.1161E+02
    -12.360  0.6170E+01  0.1167E+02
    -12.350  0.5713E+01  0.1173E+02
    -12.340  0.5237E+01  0.1178E+02
    -12.330  0.4750E+01  0.1183E+02
    -12.320  0.4261E+01  0.1187E+02
    -12.310  0.3776E+01  0.1191E+02
    -12.300  0.3302E+01  0.1194E+02
    -12.290  0.2845E+01  0.1197E+02
    -12.280  0.2411E+01  0.1199E+02
    -12.270  0.2003E+01  0.1201E+02
    -12.260  0.1625E+01  0.1203E+02
    -12.250  0.1280E+01  0.1204E+02
    -12.240  0.9687E+00  0.1205E+02
    -12.230  0.6921E+00  0.1206E+02
    -12.220  0.4502E+00  0.1206E+02
    -12.210  0.2422E+00  0.1207E+02
    -12.200  0.6683E-01  0.1207E+02
    -12.190 -0.7780E-01  0.1207E+02
    -12.180 -0.1939E+00  0.1207E+02
    -12.170 -0.2840E+00  0.1206E+02
    -12.160 -0.3509E+00  0.1206E+02
    -12.150 -0.3972E+00  0.1206E+02
    -12.140 -0.4258E+00  0.1205E+02
    -12.130 -0.4394E+00  0.1205E+02
    -12.120 -0.4406E+00  0.1204E+02
    -12.110 -0.4318E+00  0.1204E+02
    -12.100 -0.4152E+00  0.1203E+02
    -12.090 -0.3929E+00  0.1203E+02
    -12.080 -0.3665E+00  0.1203E+02
    -12.070 -0.3376E+00  0.1202E+02
    -12.060 -0.3074E+00  0.1202E+02
    -12.050 -0.2769E+00  0.1202E+02
    -12.040 -0.2470E+00  0.1201E+02
    -12.030 -0.2183E+00  0.1201E+02
    -12.020 -0.1912E+00  0.1201E+02
    -12.010 -0.1661E+00  0.1201E+02
    -12.000 -0.1432E+00  0.1201E+02
    -11.990 -0.1224E+00  0.1201E+02
    -11.980 -0.1039E+00  0.1200E+02
    -11.970 -0.8753E-01  0.1200E+02
    -11.960 -0.7322E-01  0.1200E+02
    -11.950 -0.6083E-01  0.1200E+02
    -11.940 -0.5020E-01  0.1200E+02
    -11.930 -0.4115E-01  0.1200E+02
    -11.920 -0.3351E-01  0.1200E+02
    -11.910 -0.2712E-01  0.1200E+02
    -11.900 -0.2180E-01  0.1200E+02
    -11.890 -0.1742E-01  0.1200E+02
    -11.880 -0.1383E-01  0.1200E+02
    -11.870 -0.1092E-01  0.1200E+02
    -11.860 -0.8567E-02  0.1200E+02
    -11.850 -0.6682E-02  0.1200E+02
    -11.840 -0.5180E-02  0.1200E+02
    -11.830 -0.3992E-02  0.1200E+02
    -11.820 -0.3059E-02  0.1200E+02
    -11.810 -0.2331E-02  0.1200E+02
    -11.800 -0.1765E-02  0.1200E+02
    -11.790 -0.1330E-02  0.1200E+02
    -11.780 -0.9957E-03  0.1200E+02
    -11.770 -0.7415E-03  0.1200E+02
    -11.760 -0.5491E-03  0.1200E+02
    -11.750 -0.4043E-03  0.1200E+02
    -11.740 -0.2961E-03  0.1200E+02
    -11.730 -0.2156E-03  0.1200E+02
    -11.720 -0.1562E-03  0.1200E+02
    -11.710 -0.1125E-03  0.1200E+02
    -11.700 -0.8062E-04  0.1200E+02
    -11.690 -0.5750E-04  0.1200E+02
    -11.680 -0.4083E-04  0.1200E+02
    -11.670 -0.2892E-04  0.1200E+02
    -11.660 -0.2049E-04  0.1200E+02
    -11.650 -0.1461E-04  0.1200E+02
    -11.640 -0.1062E-04  0.1200E+02
    -11.630 -0.8055E-05  0.1200E+02
    -11.620 -0.6603E-05  0.1200E+02
    -11.610 -0.6090E-05  0.1200E+02
    -11.600 -0.6448E-05  0.1200E+02
    -11.590 -0.7720E-05  0.1200E+02
    -11.580 -0.1005E-04  0.1200E+02
    -11.570 -0.1372E-04  0.1200E+02
    -11.560 -0.1914E-04  0.1200E+02
    -11.550 -0.2692E-04  0.1200E+02
    -11.540 -0.3791E-04  0.1200E+02
    -11.530 -0.5325E-04  0.1200E+02
    -11.520 -0.7450E-04  0.1200E+02
    -11.510 -0.1037E-03  0.1200E+02
    -11.500 -0.1437E-03  0.1200E+02
    -11.490 -0.1981E-03  0.1200E+02
    -11.480 -0.2715E-03  0.1200E+02
    -11.470 -0.3702E-03  0.1200E+02
    -11.460 -0.5020E-03  0.1200E+02
    -11.450 -0.6770E-03  0.1200E+02
    -11.440 -0.9080E-03  0.1200E+02
    -11.430 -0.1211E-02  0.1200E+02
    -11.420 -0.1606E-02  0.1200E+02
    -11.410 -0.2118E-02  0.1200E+02
    -11.400 -0.2778E-02  0.1200E+02
    -11.390 -0.3623E-02  0.1200E+02
    -11.380 -0.4697E-02  0.1200E+02
    -11.370 -0.6056E-02  0.1200E+02
    -11.360 -0.7762E-02  0.1200E+02
    -11.350 -0.9890E-02  0.1200E+02
    -11.340 -0.1253E-01  0.1200E+02
    -11.330 -0.1577E-01  0.1200E+02
    -11.320 -0.1974E-01  0.1200E+02
    -11.310 -0.2456E-01  0.1200E+02
    -11.300 -0.3036E-01  0.1200E+02
    -11.290 -0.3730E-01  0.1200E+02
    -11.280 -0.4554E-01  0.1200E+02
    -11.270 -0.5523E-01  0.1200E+02
    -11.260 -0.6654E-01  0.1200E+02
    -11.250 -0.7963E-01  0.1200E+02
    -11.240 -0.9464E-01  0.1199E+02
    -11.230 -0.1117E+00  0.1199E+02
    -11.220 -0.1309E+00  0.1199E+02
    -11.210 -0.1521E+00  0.1199E+02
    -11.200 -0.1755E+00  0.1199E+02
    -11.190 -0.2009E+00  0.1199E+02
    -11.180 -0.2280E+00  0.1198E+02
    -11.170 -0.2564E+00  0.1198E+02
    -11.160 -0.2856E+00  0.1198E+02
    -11.150 -0.3150E+00  0.1198E+02
    -11.140 -0.3436E+00  0.1197E+02
    -11.130 -0.3704E+00  0.1197E+02
    -11.120 -0.3940E+00  0.1197E+02
    -11.110 -0.4129E+00  0.1196E+02
    -11.100 -0.4254E+00  0.1196E+02
    -11.090 -0.4293E+00  0.1195E+02
    -11.080 -0.4226E+00  0.1195E+02
    -11.070 -0.4029E+00  0.1194E+02
    -11.060 -0.3675E+00  0.1194E+02
    -11.050 -0.3140E+00  0.1194E+02
    -11.040 -0.2397E+00  0.1193E+02
    -11.030 -0.1419E+00  0.1193E+02
    -11.020 -0.1833E-01  0.1193E+02
    -11.010  0.1333E+00  0.1193E+02
    -11.000  0.3150E+00  0.1194E+02
    -10.990  0.5280E+00  0.1194E+02
    -10.980  0.7735E+00  0.1195E+02
    -10.970  0.1052E+01  0.1196E+02
    -10.960  0.1362E+01  0.1197E+02
    -10.950  0.1704E+01  0.1199E+02
    -10.940  0.2074E+01  0.1201E+02
    -10.930  0.2471E+01  0.1204E+02
    -10.920  0.2891E+01  0.1207E+02
    -10.910  0.3328E+01  0.1210E+02
    -10.900  0.3778E+01  0.1214E+02
    -10.890  0.4234E+01  0.1218E+02
    -10.880  0.4690E+01  0.1223E+02
    -10.870  0.5138E+01  0.1228E+02
    -10.860  0.5573E+01  0.1233E+02
    -10.850  0.5985E+01  0.1239E+02
    -10.840  0.6369E+01  0.1246E+02
    -10.830  0.6717E+01  0.1252E+02
    -10.820  0.7023E+01  0.1259E+02
    -10.810  0.7283E+01  0.1267E+02
    -10.800  0.7493E+01  0.1274E+02
    -10.790  0.7649E+01  0.1282E+02
    -10.780  0.7750E+01  0.1290E+02
    -10.770  0.7796E+01  0.1297E+02
    -10.760  0.7789E+01  0.1305E+02
    -10.750  0.7732E+01  0.1313E+02
    -10.740  0.7629E+01  0.1321E+02
    -10.730  0.7487E+01  0.1328E+02
    -10.720  0.7313E+01  0.1335E+02
    -10.710  0.7114E+01  0.1343E+02
    -10.700  0.6899E+01  0.1349E+02
    -10.690  0.6678E+01  0.1356E+02
    -10.680  0.6460E+01  0.1363E+02
    -10.670  0.6254E+01  0.1369E+02
    -10.660  0.6068E+01  0.1375E+02
    -10.650  0.5911E+01  0.1381E+02
    -10.640  0.5788E+01  0.1387E+02
    -10.630  0.5705E+01  0.1392E+02
    -10.620  0.5665E+01  0.1398E+02
    -10.610  0.5671E+01  0.1404E+02
    -10.600  0.5723E+01  0.1409E+02
    -10.590  0.5818E+01  0.1415E+02
    -10.580  0.5954E+01  0.1421E+02
    -10.570  0.6126E+01  0.1427E+02
    -10.560  0.6327E+01  0.1434E+02
    -10.550  0.6549E+01  0.1440E+02
    -10.540  0.6784E+01  0.1447E+02
    -10.530  0.7023E+01  0.1454E+02
    -10.520  0.7256E+01  0.1461E+02
    -10.510  0.7473E+01  0.1469E+02
    -10.500  0.7666E+01  0.1476E+02
    -10.490  0.7825E+01  0.1484E+02
    -10.480  0.7943E+01  0.1492E+02
    -10.470  0.8013E+01  0.1500E+02
    -10.460  0.8031E+01  0.1508E+02
    -10.450  0.7993E+01  0.1516E+02
    -10.440  0.7896E+01  0.1524E+02
    -10.430  0.7741E+01  0.1532E+02
    -10.420  0.7529E+01  0.1539E+02
    -10.410  0.7261E+01  0.1547E+02
    -10.400  0.6943E+01  0.1553E+02
    -10.390  0.6580E+01  0.1560E+02
    -10.380  0.6177E+01  0.1566E+02
    -10.370  0.5742E+01  0.1572E+02
    -10.360  0.5282E+01  0.1577E+02
    -10.350  0.4804E+01  0.1582E+02
    -10.340  0.4317E+01  0.1586E+02
    -10.330  0.3827E+01  0.1590E+02
    -10.320  0.3341E+01  0.1594E+02
    -10.310  0.2866E+01  0.1596E+02
    -10.300  0.2407E+01  0.1599E+02
    -10.290  0.1969E+01  0.1601E+02
    -10.280  0.1556E+01  0.1602E+02
    -10.270  0.1171E+01  0.1604E+02
    -10.260  0.8143E+00  0.1604E+02
    -10.250  0.4887E+00  0.1605E+02
    -10.240  0.1941E+00  0.1605E+02
    -10.230 -0.6992E-01  0.1605E+02
    -10.220 -0.3040E+00  0.1605E+02
    -10.210 -0.5094E+00  0.1604E+02
    -10.200 -0.6874E+00  0.1603E+02
    -10.190 -0.8394E+00  0.1603E+02
    -10.180 -0.9669E+00  0.1602E+02
    -10.170 -0.1071E+01  0.1601E+02
    -10.160 -0.1152E+01  0.1599E+02
    -10.150 -0.1211E+01  0.1598E+02
    -10.140 -0.1247E+01  0.1597E+02
    -10.130 -0.1259E+01  0.1596E+02
    -10.120 -0.1247E+01  0.1594E+02
    -10.110 -0.1207E+01  0.1593E+02
    -10.100 -0.1138E+01  0.1592E+02
    -10.090 -0.1036E+01  0.1591E+02
    -10.080 -0.8968E+00  0.1590E+02
    -10.070 -0.7175E+00  0.1589E+02
    -10.060 -0.4936E+00  0.1589E+02
    -10.050 -0.2213E+00  0.1589E+02
    -10.040  0.1034E+00  0.1589E+02
    -10.030  0.4838E+00  0.1589E+02
    -10.020  0.9226E+00  0.1590E+02
    -10.010  0.1422E+01  0.1592E+02
    -10.000  0.1982E+01  0.1594E+02
     -9.990  0.2604E+01  0.1596E+02
     -9.980  0.3284E+01  0.1600E+02
     -9.970  0.4021E+01  0.1604E+02
     -9.960  0.4808E+01  0.1608E+02
     -9.950  0.5641E+01  0.1614E+02
     -9.940  0.6511E+01  0.1621E+02
     -9.930  0.7408E+01  0.1628E+02
     -9.920  0.8323E+01  0.1636E+02
     -9.910  0.9242E+01  0.1645E+02
     -9.900  0.1015E+02  0.1656E+02
     -9.890  0.1104E+02  0.1667E+02
     -9.880  0.1190E+02  0.1679E+02
     -9.870  0.1270E+02  0.1691E+02
     -9.860  0.1344E+02  0.1705E+02
     -9.850  0.1411E+02  0.1719E+02
     -9.840  0.1469E+02  0.1734E+02
     -9.830  0.1517E+02  0.1749E+02
     -9.820  0.1554E+02  0.1764E+02
     -9.810  0.1580E+02  0.1780E+02
     -9.800  0.1594E+02  0.1796E+02
     -9.790  0.1596E+02  0.1812E+02
     -9.780  0.1586E+02  0.1828E+02
     -9.770  0.1564E+02  0.1843E+02
     -9.760  0.1530E+02  0.1859E+02
     -9.750  0.1486E+02  0.1874E+02
     -9.740  0.1432E+02  0.1888E+02
     -9.730  0.1368E+02  0.1902E+02
     -9.720  0.1297E+02  0.1915E+02
     -9.710  0.1220E+02  0.1927E+02
     -9.700  0.1137E+02  0.1938E+02
     -9.690  0.1051E+02  0.1949E+02
     -9.680  0.9617E+01  0.1958E+02
     -9.670  0.8717E+01  0.1967E+02
     -9.660  0.7819E+01  0.1975E+02
     -9.650  0.6935E+01  0.1982E+02
     -9.640  0.6076E+01  0.1988E+02
     -9.630  0.5252E+01  0.1993E+02
     -9.620  0.4470E+01  0.1998E+02
     -9.610  0.3738E+01  0.2001E+02
     -9.600  0.3060E+01  0.2004E+02
     -9.590  0.2440E+01  0.2007E+02
     -9.580  0.1881E+01  0.2009E+02
     -9.570  0.1383E+01  0.2010E+02
     -9.560  0.9454E+00  0.2011E+02
     -9.550  0.5675E+00  0.2012E+02
     -9.540  0.2464E+00  0.2012E+02
     -9.530 -0.2109E-01  0.2012E+02
     -9.520 -0.2387E+00  0.2012E+02
     -9.510 -0.4109E+00  0.2011E+02
     -9.500 -0.5420E+00  0.2011E+02
     -9.490 -0.6368E+00  0.2010E+02
     -9.480 -0.6999E+00  0.2009E+02
     -9.470 -0.7360E+00  0.2009E+02
     -9.460 -0.7495E+00  0.2008E+02
     -9.450 -0.7444E+00  0.2007E+02
     -9.440 -0.7245E+00  0.2006E+02
     -9.430 -0.6933E+00  0.2006E+02
     -9.420 -0.6537E+00  0.2005E+02
     -9.410 -0.6085E+00  0.2004E+02
     -9.400 -0.5598E+00  0.2004E+02
     -9.390 -0.5096E+00  0.2003E+02
     -9.380 -0.4593E+00  0.2003E+02
     -9.370 -0.4103E+00  0.2002E+02
     -9.360 -0.3633E+00  0.2002E+02
     -9.350 -0.3191E+00  0.2002E+02
     -9.340 -0.2782E+00  0.2001E+02
     -9.330 -0.2408E+00  0.2001E+02
     -9.320 -0.2069E+00  0.2001E+02
     -9.310 -0.1768E+00  0.2001E+02
     -9.300 -0.1501E+00  0.2001E+02
     -9.290 -0.1269E+00  0.2001E+02
     -9.280 -0.1069E+00  0.2000E+02
     -9.270 -0.8982E-01  0.2000E+02
     -9.260 -0.7555E-01  0.2000E+02
     -9.250 -0.6382E-01  0.2000E+02
     -9.240 -0.5444E-01  0.2000E+02
     -9.230 -0.4722E-01  0.2000E+02
     -9.220 -0.4201E-01  0.2000E+02
     -9.210 -0.3869E-01  0.2000E+02
     -9.200 -0.3718E-01  0.2000E+02
     -9.190 -0.3743E-01  0.2000E+02
     -9.180 -0.3942E-01  0.2000E+02
     -9.170 -0.4318E-01  0.2000E+02
     -9.160 -0.4877E-01  0.2000E+02
     -9.150 -0.5626E-01  0.2000E+02
     -9.140 -0.6574E-01  0.2000E+02
     -9.130 -0.7735E-01  0.2000E+02
     -9.120 -0.9118E-01  0.2000E+02
     -9.110 -0.1074E+00  0.1999E+02
     -9.100 -0.1260E+00  0.1999E+02
     -9.090 -0.1470E+00  0.1999E+02
     -9.080 -0.1705E+00  0.1999E+02
     -9.070 -0.1964E+00  0.1999E+02
     -9.060 -0.2245E+00  0.1999E+02
     -9.050 -0.2543E+00  0.1998E+02
     -9.040 -0.2856E+00  0.1998E+02
     -9.030 -0.3176E+00  0.1998E+02
     -9.020 -0.3495E+00  0.1997E+02
     -9.010 -0.3802E+00  0.1997E+02
     -9.000 -0.4084E+00  0.1997E+02
     -8.990 -0.4325E+00  0.1996E+02
     -8.980 -0.4507E+00  0.1996E+02
     -8.970 -0.4610E+00  0.1995E+02
     -8.960 -0.4609E+00  0.1995E+02
     -8.950 -0.4480E+00  0.1994E+02
     -8.940 -0.4195E+00  0.1994E+02
     -8.930 -0.3726E+00  0.1994E+02
     -8.920 -0.3042E+00  0.1993E+02
     -8.910 -0.2115E+00  0.1993E+02
     -8.900 -0.9152E-01  0.1993E+02
     -8.890  0.5827E-01  0.1993E+02
     -8.880  0.2403E+00  0.1993E+02
     -8.870  0.4564E+00  0.1994E+02
     -8.860  0.7080E+00  0.1994E+02
     -8.850  0.9959E+00  0.1995E+02
     -8.840  0.1320E+01  0.1997E+02
     -8.830  0.1680E+01  0.1998E+02
     -8.820  0.2073E+01  0.2000E+02
     -8.810  0.2497E+01  0.2003E+02
     -8.800  0.2949E+01  0.2006E+02
     -8.790  0.3423E+01  0.2009E+02
     -8.780  0.3914E+01  0.2013E+02
     -8.770  0.4415E+01  0.2018E+02
     -8.760  0.4920E+01  0.2023E+02
     -8.750  0.5421E+01  0.2028E+02
     -8.740  0.5909E+01  0.2034E+02
     -8.730  0.6376E+01  0.2040E+02
     -8.720  0.6814E+01  0.2047E+02
     -8.710  0.7214E+01  0.2054E+02
     -8.700  0.7569E+01  0.2062E+02
     -8.690  0.7872E+01  0.2070E+02
     -8.680  0.8116E+01  0.2078E+02
     -8.670  0.8298E+01  0.2086E+02
     -8.660  0.8412E+01  0.2095E+02
     -8.650  0.8458E+01  0.2103E+02
     -8.640  0.8433E+01  0.2111E+02
     -8.630  0.8338E+01  0.2120E+02
     -8.620  0.8175E+01  0.2128E+02
     -8.610  0.7948E+01  0.2136E+02
     -8.600  0.7661E+01  0.2144E+02
     -8.590  0.7320E+01  0.2151E+02
     -8.580  0.6932E+01  0.2158E+02
     -8.570  0.6504E+01  0.2164E+02
     -8.560  0.6045E+01  0.2170E+02
     -8.550  0.5562E+01  0.2176E+02
     -8.540  0.5064E+01  0.2181E+02
     -8.530  0.4559E+01  0.2186E+02
     -8.520  0.4056E+01  0.2190E+02
     -8.510  0.3561E+01  0.2193E+02
     -8.500  0.3081E+01  0.2196E+02
     -8.490  0.2622E+01  0.2199E+02
     -8.480  0.2189E+01  0.2201E+02
     -8.470  0.1786E+01  0.2203E+02
     -8.460  0.1416E+01  0.2204E+02
     -8.450  0.1080E+01  0.2205E+02
     -8.440  0.7802E+00  0.2206E+02
     -8.430  0.5163E+00  0.2207E+02
     -8.420  0.2877E+00  0.2207E+02
     -8.410  0.9312E-01  0.2207E+02
     -8.400 -0.6947E-01  0.2207E+02
     -8.390 -0.2024E+00  0.2207E+02
     -8.380 -0.3085E+00  0.2206E+02
     -8.370 -0.3907E+00  0.2206E+02
     -8.360 -0.4521E+00  0.2206E+02
     -8.350 -0.4961E+00  0.2205E+02
     -8.340 -0.5257E+00  0.2205E+02
     -8.330 -0.5441E+00  0.2204E+02
     -8.320 -0.5542E+00  0.2203E+02
     -8.310 -0.5586E+00  0.2203E+02
     -8.300 -0.5598E+00  0.2202E+02
     -8.290 -0.5601E+00  0.2202E+02
     -8.280 -0.5612E+00  0.2201E+02
     -8.270 -0.5647E+00  0.2201E+02
     -8.260 -0.5719E+00  0.2200E+02
     -8.250 -0.5835E+00  0.2200E+02
     -8.240 -0.6001E+00  0.2199E+02
     -8.230 -0.6218E+00  0.2198E+02
     -8.220 -0.6483E+00  0.2198E+02
     -8.210 -0.6789E+00  0.2197E+02
     -8.200 -0.7124E+00  0.2196E+02
     -8.190 -0.7474E+00  0.2196E+02
     -8.180 -0.7819E+00  0.2195E+02
     -8.170 -0.8132E+00  0.2194E+02
     -8.160 -0.8385E+00  0.2193E+02
     -8.150 -0.8545E+00  0.2192E+02
     -8.140 -0.8571E+00  0.2191E+02
     -8.130 -0.8423E+00  0.2191E+02
     -8.120 -0.8053E+00  0.2190E+02
     -8.110 -0.7413E+00  0.2189E+02
     -8.100 -0.6452E+00  0.2188E+02
     -8.090 -0.5117E+00  0.2188E+02
     -8.080 -0.3357E+00  0.2187E+02
     -8.070 -0.1122E+00  0.2187E+02
     -8.060  0.1635E+00  0.2188E+02
     -8.050  0.4954E+00  0.2188E+02
     -8.040  0.8870E+00  0.2189E+02
     -8.030  0.1341E+01  0.2190E+02
     -8.020  0.1858E+01  0.2192E+02
     -8.010  0.2440E+01  0.2195E+02
     -8.000  0.3084E+01  0.2198E+02
     -7.990  0.3789E+01  0.2201E+02
     -7.980  0.4549E+01  0.2206E+02
     -7.970  0.5359E+01  0.2211E+02
     -7.960  0.6212E+01  0.2218E+02
     -7.950  0.7099E+01  0.2225E+02
     -7.940  0.8008E+01  0.2233E+02
     -7.930  0.8929E+01  0.2242E+02
     -7.920  0.9849E+01  0.2251E+02
     -7.910  0.1075E+02  0.2262E+02
     -7.900  0.1163E+02  0.2274E+02
     -7.890  0.1246E+02  0.2286E+02
     -7.880  0.1323E+02  0.2300E+02
     -7.870  0.1394E+02  0.2313E+02
     -7.860  0.1456E+02  0.2328E+02
     -7.850  0.1508E+02  0.2343E+02
     -7.840  0.1550E+02  0.2359E+02
     -7.830  0.1580E+02  0.2374E+02
     -7.820  0.1599E+02  0.2390E+02
     -7.810  0.1606E+02  0.2406E+02
     -7.800  0.1600E+02  0.2422E+02
     -7.790  0.1582E+02  0.2438E+02
     -7.780  0.1552E+02  0.2454E+02
     -7.770  0.1512E+02  0.2469E+02
     -7.760  0.1460E+02  0.2484E+02
     -7.750  0.1399E+02  0.2497E+02
     -7.740  0.1330E+02  0.2511E+02
     -7.730  0.1254E+02  0.2523E+02
     -7.720  0.1172E+02  0.2535E+02
     -7.710  0.1085E+02  0.2546E+02
     -7.700  0.9959E+01  0.2556E+02
     -7.690  0.9049E+01  0.2565E+02
     -7.680  0.8138E+01  0.2573E+02
     -7.670  0.7236E+01  0.2580E+02
     -7.660  0.6357E+01  0.2587E+02
     -7.650  0.5510E+01  0.2592E+02
     -7.640  0.4703E+01  0.2597E+02
     -7.630  0.3946E+01  0.2601E+02
     -7.620  0.3242E+01  0.2604E+02
     -7.610  0.2597E+01  0.2607E+02
     -7.600  0.2013E+01  0.2609E+02
     -7.590  0.1492E+01  0.2610E+02
     -7.580  0.1032E+01  0.2611E+02
     -7.570  0.6343E+00  0.2612E+02
     -7.560  0.2952E+00  0.2612E+02
     -7.550  0.1174E-01  0.2612E+02
     -7.540 -0.2197E+00  0.2612E+02
     -7.530 -0.4035E+00  0.2611E+02
     -7.520 -0.5442E+00  0.2611E+02
     -7.510 -0.6467E+00  0.2610E+02
     -7.500 -0.7158E+00  0.2610E+02
     -7.490 -0.7562E+00  0.2609E+02
     -7.480 -0.7726E+00  0.2608E+02
     -7.470 -0.7692E+00  0.2607E+02
     -7.460 -0.7500E+00  0.2607E+02
     -7.450 -0.7187E+00  0.2606E+02
     -7.440 -0.6784E+00  0.2605E+02
     -7.430 -0.6319E+00  0.2605E+02
     -7.420 -0.5816E+00  0.2604E+02
     -7.410 -0.5296E+00  0.2603E+02
     -7.400 -0.4774E+00  0.2603E+02
     -7.390 -0.4263E+00  0.2602E+02
     -7.380 -0.3774E+00  0.2602E+02
     -7.370 -0.3313E+00  0.2602E+02
     -7.360 -0.2885E+00  0.2601E+02
     -7.350 -0.2493E+00  0.2601E+02
     -7.340 -0.2139E+00  0.2601E+02
     -7.330 -0.1822E+00  0.2601E+02
     -7.320 -0.1541E+00  0.2601E+02
     -7.310 -0.1295E+00  0.2601E+02
     -7.300 -0.1081E+00  0.2600E+02
     -7.290 -0.8964E-01  0.2600E+02
     -7.280 -0.7387E-01  0.2600E+02
     -7.270 -0.6049E-01  0.2600E+02
     -7.260 -0.4924E-01  0.2600E+02
     -7.250 -0.3984E-01  0.2600E+02
     -7.240 -0.3204E-01  0.2600E+02
     -7.230 -0.2561E-01  0.2600E+02
     -7.220 -0.2036E-01  0.2600E+02
     -7.210 -0.1609E-01  0.2600E+02
     -7.200 -0.1264E-01  0.2600E+02
     -7.190 -0.9876E-02  0.2600E+02
     -7.180 -0.7673E-02  0.2600E+02
     -7.170 -0.5927E-02  0.2600E+02
     -7.160 -0.4554E-02  0.2600E+02
     -7.150 -0.3479E-02  0.2600E+02
     -7.140 -0.2644E-02  0.2600E+02
     -7.130 -0.1998E-02  0.2600E+02
     -7.120 -0.1502E-02  0.2600E+02
     -7.110 -0.1122E-02  0.2600E+02
     -7.100 -0.8346E-03  0.2600E+02
     -7.090 -0.6172E-03  0.2600E+02
     -7.080 -0.4540E-03  0.2600E+02
     -7.070 -0.3322E-03  0.2600E+02
     -7.060 -0.2417E-03  0.2600E+02
     -7.050 -0.1750E-03  0.2600E+02
     -7.040 -0.1260E-03  0.2600E+02
     -7.030 -0.9026E-04  0.2600E+02
     -7.020 -0.6431E-04  0.2600E+02
     -7.010 -0.4558E-04  0.2600E+02
     -7.000 -0.3214E-04  0.2600E+02
     -6.990 -0.2254E-04  0.2600E+02
     -6.980 -0.1573E-04  0.2600E+02
     -6.970 -0.1092E-04  0.2600E+02
     -6.960 -0.7539E-05  0.2600E+02
     -6.950 -0.5180E-05  0.2600E+02
     -6.940 -0.3541E-05  0.2600E+02
     -6.930 -0.2409E-05  0.2600E+02
     -6.920 -0.1633E-05  0.2600E+02
     -6.910 -0.1105E-05  0.2600E+02
     -6.900 -0.7490E-06  0.2600E+02
     -6.890 -0.5139E-06  0.2600E+02
     -6.880 -0.3642E-06  0.2600E+02
     -6.870 -0.2772E-06  0.2600E+02
     -6.860 -0.2397E-06  0.2600E+02
     -6.850 -0.2461E-06  0.2600E+02
     -6.840 -0.2980E-06  0.2600E+02
     -6.830 -0.4044E-06  0.2600E+02
     -6.820 -0.5830E-06  0.2600E+02
     -6.810 -0.8628E-06  0.2600E+02
     -6.800 -0.1288E-05  0.2600E+02
     -6.790 -0.1924E-05  0.2600E+02
     -6.780 -0.2867E-05  0.2600E+02
     -6.770 -0.4253E-05  0.2600E+02
     -6.760 -0.6279E-05  0.2600E+02
     -6.750 -0.9223E-05  0.2600E+02