   12   12    1    1
  0.7797930E+02  0.7364740E-09  0.8470555E-09  0.1500000E-08  0.5000000E-15
   1.0000000000000000E-004
  CAR 
 full                                    
     30      4     22

  0.3742002E-15  0.3742002E-15  0.1262379E-14  0.1111111E+00
    1      -20.788123   1.000000
    2      -18.010891   1.000000
    3      -18.005804   1.000000
    4      -14.410566   1.000000
    5      -14.387439   1.000000
    6      -12.484047   1.000000
    7      -10.799381   1.000000
    8      -10.459875   1.000000
    9       -9.790256   1.000000
   10       -9.727235   1.000000
   11       -8.656974   1.000000
   12       -7.854335   1.000000
   13       -7.750098   1.000000
   14       -5.933988   0.998449
   15       -5.923425   0.985325
   16       -0.903761  -0.000000
   17       -0.806349  -0.000000
   18       -0.755036  -0.000000
   19        0.472890   0.000000
   20        0.628823   0.000000
   21        1.030830   0.000000
   22        1.317053   0.000000

  0.3333333E+00  0.3742002E-15  0.1262379E-14  0.2222222E+00
    1      -20.786334   1.000000
    2      -18.015908   1.000000
    3      -18.009680   1.000000
    4      -14.401720   1.000000
    5      -14.394755   1.000000
    6      -12.440832   1.000000
    7      -10.748731   1.000000
    8      -10.466138   1.000000
    9       -9.834674   1.000000
   10       -9.769074   1.000000
   11       -8.652492   1.000000
   12       -7.847234   1.000000
   13       -7.825325   1.000000
   14       -5.942564   1.007361
   15       -5.932074   0.996250
   16       -0.854789  -0.000000
   17       -0.846811  -0.000000
   18       -0.377250  -0.000000
   19        0.548625   0.000000
   20        0.792397   0.000000
   21        0.933290   0.000000
   22        1.482898   0.000000

  0.3742002E-15  0.3333333E+00  0.1262379E-14  0.2222222E+00
    1      -20.787916   1.000000
    2      -18.012371   1.000000
    3      -18.005776   1.000000
    4      -14.406079   1.000000
    5      -14.387824   1.000000
    6      -12.475848   1.000000
    7      -10.810309   1.000000
    8      -10.459356   1.000000
    9       -9.820278   1.000000
   10       -9.726669   1.000000
   11       -8.656212   1.000000
   12       -7.820508   1.000000
   13       -7.750598   1.000000
   14       -5.938302   1.003120
   15       -5.923590   0.985549
   16       -0.878599  -0.000000
   17       -0.812023  -0.000000
   18       -0.467604  -0.000000
   19        0.276879   0.000000
   20        0.715141   0.000000
   21        0.858558   0.000000
   22        1.434108   0.000000

  0.3333333E+00  0.3333333E+00  0.1262379E-14  0.4444444E+00
    1      -20.786142   1.000000
    2      -18.015907   1.000000
    3      -18.011132   1.000000
    4      -14.401989   1.000000
    5      -14.390031   1.000000
    6      -12.432871   1.000000
    7      -10.760751   1.000000
    8      -10.465812   1.000000
    9       -9.833987   1.000000
   10       -9.797452   1.000000
   11       -8.651939   1.000000
   12       -7.847734   1.000000
   13       -7.790642   1.000000
   14       -5.942438   1.007240
   15       -5.936001   1.000677
   16       -0.866152  -0.000000
   17       -0.815950  -0.000000
   18       -0.130869   0.000000
   19        0.528223   0.000000
   20        0.774842   0.000000
   21        1.027924   0.000000
   22        1.147953   0.000000
