       N       E                     dE             d eps       ncg     rms          rms(c)
DAV:   1     0.168102820507E+03    0.16810E+03   -0.86282E+03   224   0.713E+02
DAV:   2    -0.349338131139E+02   -0.20304E+03   -0.19587E+03   268   0.166E+02
DAV:   3    -0.816459916939E+02   -0.46712E+02   -0.46568E+02   224   0.890E+01
DAV:   4    -0.840370318920E+02   -0.23910E+01   -0.23972E+01   182   0.257E+01
DAV:   5    -0.840929274735E+02   -0.55896E-01   -0.55885E-01   250   0.383E+00    0.141E+01
DAV:   6    -0.778667023385E+02    0.62262E+01   -0.88392E+00   182   0.147E+01    0.772E+00
DAV:   7    -0.761323592221E+02    0.17343E+01   -0.56227E+00   238   0.114E+01    0.306E+00
DAV:   8    -0.760072040660E+02    0.12516E+00   -0.43699E-01   230   0.367E+00    0.406E-01
DAV:   9    -0.759918468495E+02    0.15357E-01   -0.65779E-02   238   0.131E+00    0.240E-01
DAV:  10    -0.759946545438E+02   -0.28077E-02   -0.49134E-03   228   0.426E-01    0.134E-01
DAV:  11    -0.759960262495E+02   -0.13717E-02   -0.24707E-03   226   0.262E-01    0.785E-02
DAV:  12    -0.759982349581E+02   -0.22087E-02   -0.39941E-03   190   0.255E-01    0.443E-02
DAV:  13    -0.760005329682E+02   -0.22980E-02   -0.28936E-04   208   0.102E-01    0.253E-02
DAV:  14    -0.760026011203E+02   -0.20682E-02   -0.55991E-04   214   0.102E-01    0.158E-02
DAV:  15    -0.760036055750E+02   -0.10045E-02   -0.14457E-04   220   0.562E-02    0.869E-03
DAV:  16    -0.760045788565E+02   -0.97328E-03   -0.17366E-04   232   0.485E-02    0.584E-03
DAV:  17    -0.760048002372E+02   -0.22138E-03   -0.20401E-05   262   0.176E-02    0.498E-03
DAV:  18    -0.760048936999E+02   -0.93463E-04   -0.81093E-06   222   0.124E-02    0.223E-03
DAV:  19    -0.760049195847E+02   -0.25885E-04   -0.21102E-06   246   0.589E-03    0.800E-04
DAV:  20    -0.760049305477E+02   -0.10963E-04   -0.66853E-07   222   0.318E-03    0.488E-04
DAV:  21    -0.760049329875E+02   -0.24398E-05   -0.78002E-08   218   0.116E-03    0.172E-04
DAV:  22    -0.760049340167E+02   -0.10291E-05   -0.24648E-08   172   0.625E-04    0.119E-04
DAV:  23    -0.760049344649E+02   -0.44821E-06   -0.78579E-09   166   0.386E-04    0.427E-05
DAV:  24    -0.760049345866E+02   -0.12175E-06   -0.57935E-10   188   0.172E-04    0.238E-05
DAV:  25    -0.760049346689E+02   -0.82240E-07   -0.39481E-10   164   0.145E-04    0.965E-06
DAV:  26    -0.760049346735E+02   -0.45936E-08   -0.12424E-11   136   0.382E-05
   1 F= -.76175541E+02 E0= -.76183304E+02  d E =0.232899E-01
