PROCAR lm decomposed
# of k-points:    4         # of bands:  22         # of ions:  12

 k-point    1 :    0.00000000 0.00000000 0.00000000     weight = 0.11111111

band   1 # energy  -20.78812332 # occ.  2.00000000

ion      s     py     pz     px    dxy    dyz    dz2    dxz    dx2    tot
  1  0.099  0.002  0.000  0.007  0.000  0.000  0.000  0.000  0.000  0.108
  2  0.099  0.009  0.000  0.000  0.000  0.000  0.000  0.000  0.000  0.108
  3  0.099  0.002  0.000  0.007  0.000  0.000  0.000  0.000  0.000  0.108
  4  0.099  0.009  0.000  0.000  0.000  0.000  0.000  0.000  0.000  0.108
  5  0.099  0.002  0.000  0.007  0.000  0.000  0.000  0.000  0.000  0.108
  6  0.099  0.002  0.000  0.007  0.000  0.000  0.000  0.000  0.000  0.108
  7  0.005  0.000  0.000  0.000  0.000  0.000  0.000  0.000  0.000  0.005
  8  0.005  0.001  0.000  0.000  0.000  0.000  0.000  0.000  0.000  0.005
  9  0.005  0.000  0.000  0.000  0.000  0.000  0.000  0.000  0.000  0.005
 10  0.005  0.001  0.000  0.000  0.000  0.000  0.000  0.000  0.000  0.005
 11  0.005  0.000  0.000  0.000  0.000  0.000  0.000  0.000  0.000  0.005
 12  0.005  0.000  0.000  0.000  0.000  0.000  0.000  0.000  0.000  0.005
tot  0.621  0.029  0.000  0.029  0.000  0.000  0.000  0.000  0.000  0.679

band   2 # energy  -18.01089101 # occ.  2.00000000

ion      s     py     pz     px    dxy    dyz    dz2    dxz    dx2    tot
  1  0.046  0.012  0.000  0.007  0.000  0.000  0.000  0.000  0.000  0.066
  2  0.186  0.001  0.000  0.000  0.000  0.000  0.000  0.000  0.000  0.187
  3  0.046  0.012  0.000  0.007  0.000  0.000  0.000  0.000  0.000  0.066
  4  0.186  0.001  0.000  0.000  0.000  0.000  0.000  0.000  0.000  0.187
  5  0.046  0.012  0.000  0.007  0.000  0.000  0.000  0.000  0.000  0.066
  6  0.046  0.012  0.000  0.007  0.000  0.000  0.000  0.000  0.000  0.066
  7  0.006  0.000  0.000  0.001  0.000  0.000  0.000  0.000  0.000  0.006
  8  0.023  0.002  0.000  0.000  0.000  0.000  0.000  0.000  0.000  0.025
  9  0.006  0.000  0.000  0.001  0.000  0.000  0.000  0.000  0.000  0.006
 10  0.023  0.002  0.000  0.000  0.000  0.000  0.000  0.000  0.000  0.025
 11  0.006  0.000  0.000  0.001  0.000  0.000  0.000  0.000  0.000  0.006
 12  0.006  0.000  0.000  0.001  0.000  0.000  0.000  0.000  0.000  0.006
tot  0.626  0.057  0.000  0.031  0.000  0.000  0.000  0.000  0.000  0.714

band   3 # energy  -18.00580402 # occ.  2.00000000

ion      s     py     pz     px    dxy    dyz    dz2    dxz    dx2    tot
  1  0.140  0.007  0.000  0.000  0.000  0.000  0.000  0.000  0.000  0.147
  2  0.000  0.000  0.000  0.026  0.000  0.000  0.000  0.000  0.000  0.026
  3  0.140  0.007  0.000  0.000  0.000  0.000  0.000  0.000  0.000  0.147
  4  0.000  0.000  0.000  0.026  0.000  0.000  0.000  0.000  0.000  0.026
  5  0.140  0.007  0.000  0.000  0.000  0.000  0.000  0.000  0.000  0.147
  6  0.140  0.007  0.000  0.000  0.000  0.000  0.000  0.000  0.000  0.147
  7  0.017  0.001  0.000  0.001  0.000  0.000  0.000  0.000  0.000  0.019
  8  0.000  0.000  0.000  0.000  0.000  0.000  0.000  0.000  0.000  0.000
  9  0.017  0.001  0.000  0.001  0.000  0.000  0.000  0.000  0.000  0.019
 10  0.000  0.000  0.000  0.000  0.000  0.000  0.000  0.000  0.000  0.000
 11  0.017  0.001  0.000  0.001  0.000  0.000  0.000  0.000  0.000  0.019
 12  0.017  0.001  0.000  0.001  0.000  0.000  0.000  0.000  0.000  0.019
tot  0.626  0.031  0.000  0.057  0.000  0.000  0.000  0.000  0.000  0.715

band   4 # energy  -14.41056625 # occ.  2.00000000

ion      s     py     pz     px    dxy    dyz    dz2    dxz    dx2    tot
  1  0.027  0.034  0.000  0.025  0.000  0.000  0.000  0.000  0.000  0.086
  2  0.109  0.007  0.000  0.000  0.000  0.000  0.000  0.000  0.000  0.116
  3  0.027  0.034  0.000  0.025  0.000  0.000  0.000  0.000  0.000  0.086
  4  0.109  0.007  0.000  0.000  0.000  0.000  0.000  0.000  0.000  0.116
  5  0.027  0.034  0.000  0.025  0.000  0.000  0.000  0.000  0.000  0.086
  6  0.027  0.034  0.000  0.025  0.000  0.000  0.000  0.000  0.000  0.086
  7  0.011  0.001  0.000  0.000  0.000  0.000  0.000  0.000  0.000  0.012
  8  0.043  0.003  0.000  0.000  0.000  0.000  0.000  0.000  0.000  0.046
  9  0.011  0.001  0.000  0.000  0.000  0.000  0.000  0.000  0.000  0.012
 10  0.043  0.003  0.000  0.000  0.000  0.000  0.000  0.000  0.000  0.046
 11  0.011  0.001  0.000  0.000  0.000  0.000  0.000  0.000  0.000  0.012
 12  0.011  0.001  0.000  0.000  0.000  0.000  0.000  0.000  0.000  0.012
tot  0.456  0.161  0.000  0.101  0.000  0.000  0.000  0.000  0.000  0.718

band   5 # energy  -14.38743855 # occ.  2.00000000

ion      s     py     pz     px    dxy    dyz    dz2    dxz    dx2    tot
  1  0.082  0.025  0.000  0.000  0.000  0.000  0.000  0.000  0.000  0.107
  2  0.000  0.000  0.000  0.077  0.000  0.000  0.000  0.000  0.000  0.077
  3  0.082  0.025  0.000  0.000  0.000  0.000  0.000  0.000  0.000  0.107
  4  0.000  0.000  0.000  0.077  0.000  0.000  0.000  0.000  0.000  0.077
  5  0.082  0.025  0.000  0.000  0.000  0.000  0.000  0.000  0.000  0.107
  6  0.082  0.025  0.000  0.000  0.000  0.000  0.000  0.000  0.000  0.107
  7  0.032  0.000  0.000  0.002  0.000  0.000  0.000  0.000  0.000  0.035
  8  0.000  0.000  0.000  0.000  0.000  0.000  0.000  0.000  0.000  0.000
  9  0.032  0.000  0.000  0.002  0.000  0.000  0.000  0.000  0.000  0.035
 10  0.000  0.000  0.000  0.000  0.000  0.000  0.000  0.000  0.000  0.000
 11  0.032  0.000  0.000  0.002  0.000  0.000  0.000  0.000  0.000  0.035
 12  0.032  0.000  0.000  0.002  0.000  0.000  0.000  0.000  0.000  0.035
tot  0.457  0.100  0.000  0.165  0.000  0.000  0.000  0.000  0.000  0.722

band   6 # energy  -12.48404691 # occ.  2.00000000

ion      s     py     pz     px    dxy    dyz    dz2    dxz    dx2    tot
  1  0.001  0.017  0.000  0.049  0.000  0.000  0.000  0.000  0.000  0.067
  2  0.001  0.066  0.000  0.000  0.000  0.000  0.000  0.000  0.000  0.067
  3  0.001  0.017  0.000  0.049  0.000  0.000  0.000  0.000  0.000  0.067
  4  0.001  0.066  0.000  0.000  0.000  0.000  0.000  0.000  0.000  0.067
  5  0.001  0.017  0.000  0.049  0.000  0.000  0.000  0.000  0.000  0.067
  6  0.001  0.017  0.000  0.049  0.000  0.000  0.000  0.000  0.000  0.067
  7  0.038  0.001  0.000  0.002  0.000  0.000  0.000  0.000  0.000  0.040
  8  0.038  0.002  0.000  0.000  0.000  0.000  0.000  0.000  0.000  0.041
  9  0.038  0.001  0.000  0.002  0.000  0.000  0.000  0.000  0.000  0.040
 10  0.038  0.002  0.000  0.000  0.000  0.000  0.000  0.000  0.000  0.041
 11  0.038  0.001  0.000  0.002  0.000  0.000  0.000  0.000  0.000  0.040
 12  0.038  0.001  0.000  0.002  0.000  0.000  0.000  0.000  0.000  0.040
tot  0.234  0.207  0.000  0.201  0.000  0.000  0.000  0.000  0.000  0.641

band   7 # energy  -10.79938125 # occ.  2.00000000

ion      s     py     pz     px    dxy    dyz    dz2    dxz    dx2    tot
  1  0.033  0.007  0.000  0.022  0.000  0.000  0.000  0.000  0.000  0.062
  2  0.036  0.022  0.000  0.000  0.000  0.000  0.000  0.000  0.000  0.058
  3  0.033  0.007  0.000  0.022  0.000  0.000  0.000  0.000  0.000  0.062
  4  0.036  0.022  0.000  0.000  0.000  0.000  0.000  0.000  0.000  0.058
  5  0.033  0.007  0.000  0.022  0.000  0.000  0.000  0.000  0.000  0.062
  6  0.033  0.007  0.000  0.022  0.000  0.000  0.000  0.000  0.000  0.062
  7  0.060  0.001  0.000  0.002  0.000  0.000  0.000  0.000  0.000  0.064
  8  0.053  0.003  0.000  0.000  0.000  0.000  0.000  0.000  0.000  0.056
  9  0.060  0.001  0.000  0.002  0.000  0.000  0.000  0.000  0.000  0.064
 10  0.053  0.003  0.000  0.000  0.000  0.000  0.000  0.000  0.000  0.056
 11  0.060  0.001  0.000  0.002  0.000  0.000  0.000  0.000  0.000  0.064
 12  0.060  0.001  0.000  0.002  0.000  0.000  0.000  0.000  0.000  0.064
tot  0.553  0.080  0.000  0.095  0.000  0.000  0.000  0.000  0.000  0.729

band   8 # energy  -10.45987531 # occ.  2.00000000

ion      s     py     pz     px    dxy    dyz    dz2    dxz    dx2    tot
  1  0.000  0.094  0.000  0.029  0.000  0.000  0.000  0.000  0.000  0.123
  2  0.000  0.000  0.000  0.121  0.000  0.000  0.000  0.000  0.000  0.121
  3  0.000  0.094  0.000  0.029  0.000  0.000  0.000  0.000  0.000  0.123
  4  0.000  0.000  0.000  0.121  0.000  0.000  0.000  0.000  0.000  0.121
  5  0.000  0.094  0.000  0.029  0.000  0.000  0.000  0.000  0.000  0.123
  6  0.000  0.094  0.000  0.029  0.000  0.000  0.000  0.000  0.000  0.123
  7  0.000  0.001  0.000  0.000  0.000  0.000  0.000  0.000  0.000  0.001
  8  0.000  0.000  0.000  0.001  0.000  0.000  0.000  0.000  0.000  0.001
  9  0.000  0.001  0.000  0.000  0.000  0.000  0.000  0.000  0.000  0.001
 10  0.000  0.000  0.000  0.001  0.000  0.000  0.000  0.000  0.000  0.001
 11  0.000  0.001  0.000  0.000  0.000  0.000  0.000  0.000  0.000  0.001
 12  0.000  0.001  0.000  0.000  0.000  0.000  0.000  0.000  0.000  0.001
tot  0.000  0.379  0.000  0.362  0.000  0.000  0.000  0.000  0.000  0.741

band   9 # energy   -9.79025571 # occ.  2.00000000

ion      s     py     pz     px    dxy    dyz    dz2    dxz    dx2    tot
  1  0.002  0.000  0.000  0.040  0.000  0.000  0.000  0.000  0.000  0.042
  2  0.004  0.145  0.000  0.000  0.000  0.000  0.000  0.000  0.000  0.149
  3  0.002  0.000  0.000  0.040  0.000  0.000  0.000  0.000  0.000  0.042
  4  0.004  0.145  0.000  0.000  0.000  0.000  0.000  0.000  0.000  0.149
  5  0.002  0.000  0.000  0.040  0.000  0.000  0.000  0.000  0.000  0.042
  6  0.002  0.000  0.000  0.040  0.000  0.000  0.000  0.000  0.000  0.042
  7  0.017  0.000  0.000  0.000  0.000  0.000  0.000  0.000  0.000  0.018
  8  0.085  0.003  0.000  0.000  0.000  0.000  0.000  0.000  0.000  0.088
  9  0.017  0.000  0.000  0.000  0.000  0.000  0.000  0.000  0.000  0.018
 10  0.085  0.003  0.000  0.000  0.000  0.000  0.000  0.000  0.000  0.088
 11  0.017  0.000  0.000  0.000  0.000  0.000  0.000  0.000  0.000  0.018
 12  0.017  0.000  0.000  0.000  0.000  0.000  0.000  0.000  0.000  0.018
tot  0.255  0.298  0.000  0.163  0.000  0.000  0.000  0.000  0.000  0.716

band  10 # energy   -9.72723524 # occ.  2.00000000

ion      s     py     pz     px    dxy    dyz    dz2    dxz    dx2    tot
  1  0.004  0.041  0.000  0.068  0.000  0.000  0.000  0.000  0.000  0.113
  2  0.000  0.000  0.000  0.012  0.000  0.000  0.000  0.000  0.000  0.012
  3  0.004  0.041  0.000  0.068  0.000  0.000  0.000  0.000  0.000  0.113
  4  0.000  0.000  0.000  0.012  0.000  0.000  0.000  0.000  0.000  0.012
  5  0.004  0.041  0.000  0.068  0.000  0.000  0.000  0.000  0.000  0.113
  6  0.004  0.041  0.000  0.068  0.000  0.000  0.000  0.000  0.000  0.113
  7  0.060  0.001  0.000  0.002  0.000  0.000  0.000  0.000  0.000  0.063
  8  0.000  0.000  0.000  0.000  0.000  0.000  0.000  0.000  0.000  0.000
  9  0.060  0.001  0.000  0.002  0.000  0.000  0.000  0.000  0.000  0.063
 10  0.000  0.000  0.000  0.000  0.000  0.000  0.000  0.000  0.000  0.000
 11  0.060  0.001  0.000  0.002  0.000  0.000  0.000  0.000  0.000  0.063
 12  0.060  0.001  0.000  0.002  0.000  0.000  0.000  0.000  0.000  0.063
tot  0.256  0.165  0.000  0.304  0.000  0.000  0.000  0.000  0.000  0.725

band  11 # energy   -8.65697356 # occ.  2.00000000

ion      s     py     pz     px    dxy    dyz    dz2    dxz    dx2    tot
  1  0.000  0.000  0.073  0.000  0.000  0.000  0.000  0.000  0.000  0.073
  2  0.000  0.000  0.073  0.000  0.000  0.000  0.000  0.000  0.000  0.073
  3  0.000  0.000  0.073  0.000  0.000  0.000  0.000  0.000  0.000  0.073
  4  0.000  0.000  0.073  0.000  0.000  0.000  0.000  0.000  0.000  0.073
  5  0.000  0.000  0.073  0.000  0.000  0.000  0.000  0.000  0.000  0.073
  6  0.000  0.000  0.073  0.000  0.000  0.000  0.000  0.000  0.000  0.073
  7  0.000  0.000  0.001  0.000  0.000  0.000  0.000  0.000  0.000  0.001
  8  0.000  0.000  0.001  0.000  0.000  0.000  0.000  0.000  0.000  0.001
  9  0.000  0.000  0.001  0.000  0.000  0.000  0.000  0.000  0.000  0.001
 10  0.000  0.000  0.001  0.000  0.000  0.000  0.000  0.000  0.000  0.001
 11  0.000  0.000  0.001  0.000  0.000  0.000  0.000  0.000  0.000  0.001
 12  0.000  0.000  0.001  0.000  0.000  0.000  0.000  0.000  0.000  0.001
tot  0.000  0.000  0.443  0.000  0.000  0.000  0.000  0.000  0.000  0.443

band  12 # energy   -7.85433496 # occ.  2.00000000

ion      s     py     pz     px    dxy    dyz    dz2    dxz    dx2    tot
  1  0.000  0.092  0.000  0.001  0.000  0.000  0.000  0.000  0.000  0.093
  2  0.000  0.070  0.000  0.000  0.000  0.000  0.000  0.000  0.000  0.070
  3  0.000  0.092  0.000  0.001  0.000  0.000  0.000  0.000  0.000  0.093
  4  0.000  0.070  0.000  0.000  0.000  0.000  0.000  0.000  0.000  0.070
  5  0.000  0.092  0.000  0.001  0.000  0.000  0.000  0.000  0.000  0.093
  6  0.000  0.092  0.000  0.001  0.000  0.000  0.000  0.000  0.000  0.093
  7  0.019  0.000  0.000  0.001  0.000  0.000  0.000  0.000  0.000  0.020
  8  0.077  0.002  0.000  0.000  0.000  0.000  0.000  0.000  0.000  0.079
  9  0.019  0.000  0.000  0.001  0.000  0.000  0.000  0.000  0.000  0.020
 10  0.077  0.002  0.000  0.000  0.000  0.000  0.000  0.000  0.000  0.079
 11  0.019  0.000  0.000  0.001  0.000  0.000  0.000  0.000  0.000  0.020
 12  0.019  0.000  0.000  0.001  0.000  0.000  0.000  0.000  0.000  0.020
tot  0.231  0.511  0.000  0.006  0.000  0.000  0.000  0.000  0.000  0.747

band  13 # energy   -7.75009834 # occ.  2.00000000

ion      s     py     pz     px    dxy    dyz    dz2    dxz    dx2    tot
  1  0.000  0.000  0.000  0.079  0.000  0.000  0.000  0.000  0.000  0.079
  2  0.000  0.000  0.000  0.101  0.000  0.000  0.000  0.000  0.000  0.101
  3  0.000  0.000  0.000  0.079  0.000  0.000  0.000  0.000  0.000  0.079
  4  0.000  0.000  0.000  0.101  0.000  0.000  0.000  0.000  0.000  0.101
  5  0.000  0.000  0.000  0.079  0.000  0.000  0.000  0.000  0.000  0.079
  6  0.000  0.000  0.000  0.079  0.000  0.000  0.000  0.000  0.000  0.079
  7  0.059  0.001  0.000  0.001  0.000  0.000  0.000  0.000  0.000  0.061
  8  0.000  0.000  0.000  0.001  0.000  0.000  0.000  0.000  0.000  0.001
  9  0.059  0.001  0.000  0.001  0.000  0.000  0.000  0.000  0.000  0.061
 10  0.000  0.000  0.000  0.001  0.000  0.000  0.000  0.000  0.000  0.001
 11  0.059  0.001  0.000  0.001  0.000  0.000  0.000  0.000  0.000  0.061
 12  0.059  0.001  0.000  0.001  0.000  0.000  0.000  0.000  0.000  0.061
tot  0.236  0.006  0.000  0.523  0.000  0.000  0.000  0.000  0.000  0.765

band  14 # energy   -5.93398824 # occ.  1.99689717

ion      s     py     pz     px    dxy    dyz    dz2    dxz    dx2    tot
  1  0.000  0.000  0.039  0.000  0.000  0.000  0.000  0.000  0.000  0.039
  2  0.000  0.000  0.155  0.000  0.000  0.000  0.000  0.000  0.000  0.155
  3  0.000  0.000  0.039  0.000  0.000  0.000  0.000  0.000  0.000  0.039
  4  0.000  0.000  0.155  0.000  0.000  0.000  0.000  0.000  0.000  0.155
  5  0.000  0.000  0.039  0.000  0.000  0.000  0.000  0.000  0.000  0.039
  6  0.000  0.000  0.039  0.000  0.000  0.000  0.000  0.000  0.000  0.039
  7  0.000  0.000  0.001  0.000  0.000  0.000  0.000  0.000  0.000  0.001
  8  0.000  0.000  0.002  0.000  0.000  0.000  0.000  0.000  0.000  0.002
  9  0.000  0.000  0.001  0.000  0.000  0.000  0.000  0.000  0.000  0.001
 10  0.000  0.000  0.002  0.000  0.000  0.000  0.000  0.000  0.000  0.002
 11  0.000  0.000  0.001  0.000  0.000  0.000  0.000  0.000  0.000  0.001
 12  0.000  0.000  0.001  0.000  0.000  0.000  0.000  0.000  0.000  0.001
tot  0.000  0.000  0.472  0.000  0.000  0.000  0.000  0.000  0.000  0.472

band  15 # energy   -5.92342511 # occ.  1.97064998

ion      s     py     pz     px    dxy    dyz    dz2    dxz    dx2    tot
  1  0.000  0.000  0.117  0.000  0.000  0.000  0.000  0.000  0.000  0.117
  2  0.000  0.000  0.000  0.000  0.000  0.000  0.000  0.000  0.000  0.000
  3  0.000  0.000  0.117  0.000  0.000  0.000  0.000  0.000  0.000  0.117
  4  0.000  0.000  0.000  0.000  0.000  0.000  0.000  0.000  0.000  0.000
  5  0.000  0.000  0.117  0.000  0.000  0.000  0.000  0.000  0.000  0.117
  6  0.000  0.000  0.117  0.000  0.000  0.000  0.000  0.000  0.000  0.117
  7  0.000  0.000  0.002  0.000  0.000  0.000  0.000  0.000  0.000  0.002
  8  0.000  0.000  0.000  0.000  0.000  0.000  0.000  0.000  0.000  0.000
  9  0.000  0.000  0.002  0.000  0.000  0.000  0.000  0.000  0.000  0.002
 10  0.000  0.000  0.000  0.000  0.000  0.000  0.000  0.000  0.000  0.000
 11  0.000  0.000  0.002  0.000  0.000  0.000  0.000  0.000  0.000  0.002
 12  0.000  0.000  0.002  0.000  0.000  0.000  0.000  0.000  0.000  0.002
tot  0.000  0.000  0.474  0.000  0.000  0.000  0.000  0.000  0.000  0.474

band  16 # energy   -0.90376067 # occ. -0.00000000

ion      s     py     pz     px    dxy    dyz    dz2    dxz    dx2    tot
  1  0.000  0.000  0.034  0.000  0.000  0.000  0.000  0.000  0.000  0.034
  2  0.000  0.000  0.142  0.000  0.000  0.000  0.000  0.000  0.000  0.142
  3  0.000  0.000  0.034  0.000  0.000  0.000  0.000  0.000  0.000  0.034
  4  0.000  0.000  0.142  0.000  0.000  0.000  0.000  0.000  0.000  0.142
  5  0.000  0.000  0.034  0.000  0.000  0.000  0.000  0.000  0.000  0.034
  6  0.000  0.000  0.034  0.000  0.000  0.000  0.000  0.000  0.000  0.034
  7  0.000  0.000  0.001  0.000  0.000  0.000  0.000  0.000  0.000  0.001
  8  0.000  0.000  0.004  0.000  0.000  0.000  0.000  0.000  0.000  0.004
  9  0.000  0.000  0.001  0.000  0.000  0.000  0.000  0.000  0.000  0.001
 10  0.000  0.000  0.004  0.000  0.000  0.000  0.000  0.000  0.000  0.004
 11  0.000  0.000  0.001  0.000  0.000  0.000  0.000  0.000  0.000  0.001
 12  0.000  0.000  0.001  0.000  0.000  0.000  0.000  0.000  0.000  0.001
tot  0.000  0.000  0.435  0.000  0.000  0.000  0.000  0.000  0.000  0.435

band  17 # energy   -0.80634914 # occ. -0.00000000

ion      s     py     pz     px    dxy    dyz    dz2    dxz    dx2    tot
  1  0.000  0.000  0.112  0.000  0.000  0.000  0.000  0.000  0.000  0.112
  2  0.000  0.000  0.000  0.000  0.000  0.000  0.000  0.000  0.000  0.000
  3  0.000  0.000  0.112  0.000  0.000  0.000  0.000  0.000  0.000  0.112
  4  0.000  0.000  0.000  0.000  0.000  0.000  0.000  0.000  0.000  0.000
  5  0.000  0.000  0.112  0.000  0.000  0.000  0.000  0.000  0.000  0.112
  6  0.000  0.000  0.112  0.000  0.000  0.000  0.000  0.000  0.000  0.112
  7  0.000  0.000  0.003  0.000  0.000  0.000  0.000  0.000  0.000  0.003
  8  0.000  0.000  0.000  0.000  0.000  0.000  0.000  0.000  0.000  0.000
  9  0.000  0.000  0.003  0.000  0.000  0.000  0.000  0.000  0.000  0.003
 10  0.000  0.000  0.000  0.000  0.000  0.000  0.000  0.000  0.000  0.000
 11  0.000  0.000  0.003  0.000  0.000  0.000  0.000  0.000  0.000  0.003
 12  0.000  0.000  0.003  0.000  0.000  0.000  0.000  0.000  0.000  0.003
tot  0.000  0.000  0.461  0.000  0.000  0.000  0.000  0.000  0.000  0.461

band  18 # energy   -0.75503554 # occ. -0.00000000

ion      s     py     pz     px    dxy    dyz    dz2    dxz    dx2    tot
  1  0.005  0.002  0.000  0.005  0.000  0.000  0.000  0.000  0.000  0.012
  2  0.005  0.007  0.000  0.000  0.000  0.000  0.000  0.000  0.000  0.012
  3  0.005  0.002  0.000  0.005  0.000  0.000  0.000  0.000  0.000  0.012
  4  0.005  0.007  0.000  0.000  0.000  0.000  0.000  0.000  0.000  0.012
  5  0.005  0.002  0.000  0.005  0.000  0.000  0.000  0.000  0.000  0.012
  6  0.005  0.002  0.000  0.005  0.000  0.000  0.000  0.000  0.000  0.012
  7  0.001  0.001  0.000  0.002  0.000  0.000  0.000  0.000  0.000  0.003
  8  0.001  0.002  0.000  0.000  0.000  0.000  0.000  0.000  0.000  0.003
  9  0.001  0.001  0.000  0.002  0.000  0.000  0.000  0.000  0.000  0.003
 10  0.001  0.002  0.000  0.000  0.000  0.000  0.000  0.000  0.000  0.003
 11  0.001  0.001  0.000  0.002  0.000  0.000  0.000  0.000  0.000  0.003
 12  0.001  0.001  0.000  0.002  0.000  0.000  0.000  0.000  0.000  0.003
tot  0.033  0.028  0.000  0.028  0.000  0.000  0.000  0.000  0.000  0.090

band  19 # energy    0.47289047 # occ.  0.00000000

ion      s     py     pz     px    dxy    dyz    dz2    dxz    dx2    tot
  1  0.000  0.000  0.003  0.000  0.000  0.000  0.000  0.000  0.000  0.003
  2  0.000  0.000  0.002  0.000  0.000  0.000  0.000  0.000  0.000  0.002
  3  0.000  0.000  0.003  0.000  0.000  0.000  0.000  0.000  0.000  0.003
  4  0.000  0.000  0.002  0.000  0.000  0.000  0.000  0.000  0.000  0.002
  5  0.000  0.000  0.003  0.000  0.000  0.000  0.000  0.000  0.000  0.003
  6  0.000  0.000  0.003  0.000  0.000  0.000  0.000  0.000  0.000  0.003
  7  0.000  0.000  0.000  0.000  0.000  0.000  0.000  0.000  0.000  0.000
  8  0.000  0.000  0.000  0.000  0.000  0.000  0.000  0.000  0.000  0.000
  9  0.000  0.000  0.000  0.000  0.000  0.000  0.000  0.000  0.000  0.000
 10  0.000  0.000  0.000  0.000  0.000  0.000  0.000  0.000  0.000  0.000
 11  0.000  0.000  0.000  0.000  0.000  0.000  0.000  0.000  0.000  0.000
 12  0.000  0.000  0.000  0.000  0.000  0.000  0.000  0.000  0.000  0.000
tot  0.000  0.000  0.017  0.000  0.000  0.000  0.000  0.000  0.000  0.017

band  20 # energy    0.62882265 # occ.  0.00000000

ion      s     py     pz     px    dxy    dyz    dz2    dxz    dx2    tot
  1  0.000  0.000  0.000  0.001  0.000  0.000  0.000  0.000  0.000  0.001
  2  0.000  0.002  0.000  0.000  0.000  0.000  0.000  0.000  0.000  0.002
  3  0.000  0.000  0.000  0.001  0.000  0.000  0.000  0.000  0.000  0.001
  4  0.000  0.002  0.000  0.000  0.000  0.000  0.000  0.000  0.000  0.002
  5  0.000  0.000  0.000  0.001  0.000  0.000  0.000  0.000  0.000  0.001
  6  0.000  0.000  0.000  0.001  0.000  0.000  0.000  0.000  0.000  0.001
  7  0.001  0.000  0.000  0.000  0.000  0.000  0.000  0.000  0.000  0.002
  8  0.001  0.001  0.000  0.000  0.000  0.000  0.000  0.000  0.000  0.002
  9  0.001  0.000  0.000  0.000  0.000  0.000  0.000  0.000  0.000  0.002
 10  0.001  0.001  0.000  0.000  0.000  0.000  0.000  0.000  0.000  0.002
 11  0.001  0.000  0.000  0.000  0.000  0.000  0.000  0.000  0.000  0.002
 12  0.001  0.000  0.000  0.000  0.000  0.000  0.000  0.000  0.000  0.002
tot  0.008  0.006  0.000  0.005  0.000  0.000  0.000  0.000  0.000  0.019

band  21 # energy    1.03083013 # occ.  0.00000000

ion      s     py     pz     px    dxy    dyz    dz2    dxz    dx2    tot
  1  0.008  0.004  0.000  0.001  0.000  0.000  0.000  0.000  0.000  0.014
  2  0.013  0.005  0.000  0.000  0.000  0.000  0.000  0.000  0.000  0.018
  3  0.008  0.004  0.000  0.001  0.000  0.000  0.000  0.000  0.000  0.014
  4  0.013  0.005  0.000  0.000  0.000  0.000  0.000  0.000  0.000  0.018
  5  0.008  0.004  0.000  0.001  0.000  0.000  0.000  0.000  0.000  0.014
  6  0.008  0.004  0.000  0.001  0.000  0.000  0.000  0.000  0.000  0.014
  7  0.000  0.000  0.000  0.004  0.000  0.000  0.000  0.000  0.000  0.004
  8  0.001  0.004  0.000  0.000  0.000  0.000  0.000  0.000  0.000  0.005
  9  0.000  0.000  0.000  0.004  0.000  0.000  0.000  0.000  0.000  0.004
 10  0.001  0.004  0.000  0.000  0.000  0.000  0.000  0.000  0.000  0.005
 11  0.000  0.000  0.000  0.004  0.000  0.000  0.000  0.000  0.000  0.004
 12  0.000  0.000  0.000  0.004  0.000  0.000  0.000  0.000  0.000  0.004
tot  0.060  0.036  0.000  0.020  0.000  0.000  0.000  0.000  0.000  0.115

band  22 # energy    1.31705311 # occ.  0.00000000

ion      s     py     pz     px    dxy    dyz    dz2    dxz    dx2    tot
  1  0.008  0.004  0.000  0.008  0.000  0.000  0.000  0.000  0.000  0.020
  2  0.000  0.009  0.000  0.000  0.000  0.000  0.000  0.000  0.000  0.009
  3  0.008  0.004  0.000  0.008  0.000  0.000  0.000  0.000  0.000  0.020
  4  0.000  0.009  0.000  0.000  0.000  0.000  0.000  0.000  0.000  0.009
  5  0.008  0.004  0.000  0.008  0.000  0.000  0.000  0.000  0.000  0.020
  6  0.008  0.004  0.000  0.008  0.000  0.000  0.000  0.000  0.000  0.020
  7  0.000  0.001  0.000  0.004  0.000  0.000  0.000  0.000  0.000  0.005
  8  0.000  0.001  0.000  0.000  0.000  0.000  0.000  0.000  0.000  0.001
  9  0.000  0.001  0.000  0.004  0.000  0.000  0.000  0.000  0.000  0.005
 10  0.000  0.001  0.000  0.000  0.000  0.000  0.000  0.000  0.000  0.001
 11  0.000  0.001  0.000  0.004  0.000  0.000  0.000  0.000  0.000  0.005
 12  0.000  0.001  0.000  0.004  0.000  0.000  0.000  0.000  0.000  0.005
tot  0.034  0.040  0.000  0.046  0.000  0.000  0.000  0.000  0.000  0.119


 k-point    2 :    0.33333333 0.00000000 0.00000000     weight = 0.22222222

band   1 # energy  -20.78633379 # occ.  2.00000000

ion      s     py     pz     px    dxy    dyz    dz2    dxz    dx2    tot
  1  0.099  0.002  0.000  0.007  0.000  0.000  0.000  0.000  0.000  0.108
  2  0.099  0.009  0.000  0.000  0.000  0.000  0.000  0.000  0.000  0.108
  3  0.099  0.002  0.000  0.007  0.000  0.000  0.000  0.000  0.000  0.108
  4  0.099  0.009  0.000  0.000  0.000  0.000  0.000  0.000  0.000  0.108
  5  0.099  0.002  0.000  0.007  0.000  0.000  0.000  0.000  0.000  0.108
  6  0.099  0.002  0.000  0.007  0.000  0.000  0.000  0.000  0.000  0.108
  7  0.005  0.000  0.000  0.000  0.000  0.000  0.000  0.000  0.000  0.005
  8  0.005  0.001  0.000  0.000  0.000  0.000  0.000  0.000  0.000  0.005
  9  0.005  0.000  0.000  0.000  0.000  0.000  0.000  0.000  0.000  0.005
 10  0.005  0.001  0.000  0.000  0.000  0.000  0.000  0.000  0.000  0.005
 11  0.005  0.000  0.000  0.000  0.000  0.000  0.000  0.000  0.000  0.005
 12  0.005  0.000  0.000  0.000  0.000  0.000  0.000  0.000  0.000  0.005
tot  0.621  0.029  0.000  0.029  0.000  0.000  0.000  0.000  0.000  0.679

band   2 # energy  -18.01590750 # occ.  2.00000000

ion      s     py     pz     px    dxy    dyz    dz2    dxz    dx2    tot
  1  0.139  0.007  0.000  0.000  0.000  0.000  0.000  0.000  0.000  0.147
  2  0.000  0.000  0.000  0.026  0.000  0.000  0.000  0.000  0.000  0.026
  3  0.139  0.007  0.000  0.000  0.000  0.000  0.000  0.000  0.000  0.147
  4  0.000  0.000  0.000  0.026  0.000  0.000  0.000  0.000  0.000  0.026
  5  0.139  0.007  0.000  0.000  0.000  0.000  0.000  0.000  0.000  0.147
  6  0.139  0.007  0.000  0.000  0.000  0.000  0.000  0.000  0.000  0.147
  7  0.017  0.001  0.000  0.001  0.000  0.000  0.000  0.000  0.000  0.019
  8  0.000  0.000  0.000  0.000  0.000  0.000  0.000  0.000  0.000  0.000
  9  0.017  0.001  0.000  0.001  0.000  0.000  0.000  0.000  0.000  0.019
 10  0.000  0.000  0.000  0.000  0.000  0.000  0.000  0.000  0.000  0.000
 11  0.017  0.001  0.000  0.001  0.000  0.000  0.000  0.000  0.000  0.019
 12  0.017  0.001  0.000  0.001  0.000  0.000  0.000  0.000  0.000  0.019
tot  0.625  0.031  0.000  0.057  0.000  0.000  0.000  0.000  0.000  0.713

band   3 # energy  -18.00968020 # occ.  2.00000000

ion      s     py     pz     px    dxy    dyz    dz2    dxz    dx2    tot
  1  0.046  0.012  0.000  0.007  0.000  0.000  0.000  0.000  0.000  0.066
  2  0.186  0.001  0.000  0.000  0.000  0.000  0.000  0.000  0.000  0.187
  3  0.046  0.012  0.000  0.007  0.000  0.000  0.000  0.000  0.000  0.066
  4  0.186  0.001  0.000  0.000  0.000  0.000  0.000  0.000  0.000  0.187
  5  0.046  0.012  0.000  0.007  0.000  0.000  0.000  0.000  0.000  0.066
  6  0.046  0.012  0.000  0.007  0.000  0.000  0.000  0.000  0.000  0.066
  7  0.006  0.000  0.000  0.001  0.000  0.000  0.000  0.000  0.000  0.006
  8  0.023  0.002  0.000  0.000  0.000  0.000  0.000  0.000  0.000  0.025
  9  0.006  0.000  0.000  0.001  0.000  0.000  0.000  0.000  0.000  0.006
 10  0.023  0.002  0.000  0.000  0.000  0.000  0.000  0.000  0.000  0.025
 11  0.006  0.000  0.000  0.001  0.000  0.000  0.000  0.000  0.000  0.006
 12  0.006  0.000  0.000  0.001  0.000  0.000  0.000  0.000  0.000  0.006
tot  0.626  0.057  0.000  0.031  0.000  0.000  0.000  0.000  0.000  0.714

band   4 # energy  -14.40172021 # occ.  2.00000000

ion      s     py     pz     px    dxy    dyz    dz2    dxz    dx2    tot
  1  0.082  0.025  0.000  0.000  0.000  0.000  0.000  0.000  0.000  0.107
  2  0.000  0.000  0.000  0.076  0.000  0.000  0.000  0.000  0.000  0.076
  3  0.082  0.025  0.000  0.000  0.000  0.000  0.000  0.000  0.000  0.107
  4  0.000  0.000  0.000  0.076  0.000  0.000  0.000  0.000  0.000  0.076
  5  0.082  0.025  0.000  0.000  0.000  0.000  0.000  0.000  0.000  0.107
  6  0.082  0.025  0.000  0.000  0.000  0.000  0.000  0.000  0.000  0.107
  7  0.032  0.000  0.000  0.002  0.000  0.000  0.000  0.000  0.000  0.035
  8  0.000  0.000  0.000  0.000  0.000  0.000  0.000  0.000  0.000  0.000
  9  0.032  0.000  0.000  0.002  0.000  0.000  0.000  0.000  0.000  0.035
 10  0.000  0.000  0.000  0.000  0.000  0.000  0.000  0.000  0.000  0.000
 11  0.032  0.000  0.000  0.002  0.000  0.000  0.000  0.000  0.000  0.035
 12  0.032  0.000  0.000  0.002  0.000  0.000  0.000  0.000  0.000  0.035
tot  0.457  0.100  0.000  0.163  0.000  0.000  0.000  0.000  0.000  0.720

band   5 # energy  -14.39475485 # occ.  2.00000000

ion      s     py     pz     px    dxy    dyz    dz2    dxz    dx2    tot
  1  0.027  0.035  0.000  0.024  0.000  0.000  0.000  0.000  0.000  0.087
  2  0.109  0.008  0.000  0.000  0.000  0.000  0.000  0.000  0.000  0.117
  3  0.027  0.035  0.000  0.024  0.000  0.000  0.000  0.000  0.000  0.087
  4  0.109  0.008  0.000  0.000  0.000  0.000  0.000  0.000  0.000  0.117
  5  0.027  0.035  0.000  0.024  0.000  0.000  0.000  0.000  0.000  0.087
  6  0.027  0.035  0.000  0.024  0.000  0.000  0.000  0.000  0.000  0.087
  7  0.011  0.001  0.000  0.000  0.000  0.000  0.000  0.000  0.000  0.012
  8  0.044  0.003  0.000  0.000  0.000  0.000  0.000  0.000  0.000  0.047
  9  0.011  0.001  0.000  0.000  0.000  0.000  0.000  0.000  0.000  0.012
 10  0.044  0.003  0.000  0.000  0.000  0.000  0.000  0.000  0.000  0.047
 11  0.011  0.001  0.000  0.000  0.000  0.000  0.000  0.000  0.000  0.012
 12  0.011  0.001  0.000  0.000  0.000  0.000  0.000  0.000  0.000  0.012
tot  0.457  0.165  0.000  0.099  0.000  0.000  0.000  0.000  0.000  0.721

band   6 # energy  -12.44083161 # occ.  2.00000000

ion      s     py     pz     px    dxy    dyz    dz2    dxz    dx2    tot
  1  0.001  0.016  0.000  0.050  0.000  0.000  0.000  0.000  0.000  0.068
  2  0.001  0.066  0.000  0.000  0.000  0.000  0.000  0.000  0.000  0.067
  3  0.001  0.016  0.000  0.050  0.000  0.000  0.000  0.000  0.000  0.068